(R)-3-chloro-1-butene tau=120                                           
SP        RB3LYP                                                      6-311++G(d,p)       
Number of atoms                            I               12
Info1-9                                    I   N=           9
          26          26           0           0           0         110
           1          18        -502
Full Title                                 C   N=           3
(R)-3-chloro-1-butene tau=120       
Route                                      C   N=           7
#P B3LYP/6-311++G** scf(conver=11) int=ultrafine polar=optro
t cphf(rdfreq,conver=11)
Charge                                     I                0
Multiplicity                               I                1
Number of electrons                        I               48
Number of alpha electrons                  I               24
Number of beta electrons                   I               24
Number of basis functions                  I              167
Number of independent functions            I              167
Number of point charges in /Mol/           I                0
Number of translation vectors              I                0
Atomic numbers                             I   N=          12
           6           6           6           6           1           1
           1           1           1           1           1          17
Nuclear charges                            R   N=          12
  6.00000000E+00  6.00000000E+00  6.00000000E+00  6.00000000E+00  1.00000000E+00
  1.00000000E+00  1.00000000E+00  1.00000000E+00  1.00000000E+00  1.00000000E+00
  1.00000000E+00  1.70000000E+01
Current cartesian coordinates              R   N=          36
  8.77896594E-01  3.31749376E+00  7.55664528E-02  2.53032048E-02  6.52495557E-01
 -6.02794697E-01 -2.26733143E+00 -1.84464467E-01  7.95908809E-01 -4.41106380E+00
 -9.48285801E-01 -2.81900380E-01 -4.57186000E+00 -1.02882480E+00 -2.32732064E+00
  2.60319942E+00  3.81958780E+00 -9.37514775E-01 -6.06218240E+00 -1.51534977E+00
  7.89272465E-01 -2.13863972E+00 -1.25219759E-01  2.84621880E+00 -4.70593638E-01
  6.04229121E-01 -2.61632580E+00  1.28082357E+00  3.42105143E+00  2.09826043E+00
 -6.02395115E-01  4.68680478E+00 -3.77634828E-01  2.62428356E+00 -1.58151253E+00
  3.55507792E-02
Number of symbols in /Mol/                 I                0
Force Field                                I                0
Atom Types                                 C   N=          12
                                                            
                                                            
                        
Int Atom Types                             I   N=          12
           0           0           0           0           0           0
           0           0           0           0           0           0
MM charges                                 R   N=          12
  0.00000000E+00  0.00000000E+00  0.00000000E+00  0.00000000E+00  0.00000000E+00
  0.00000000E+00  0.00000000E+00  0.00000000E+00  0.00000000E+00  0.00000000E+00
  0.00000000E+00  0.00000000E+00
Integer atomic weights                     I   N=          12
          12          12          12          12           1           1
           1           1           1           1           1          35
Real atomic weights                        R   N=          12
  1.20000000E+01  1.20000000E+01  1.20000000E+01  1.20000000E+01  1.00782504E+00
  1.00782504E+00  1.00782504E+00  1.00782504E+00  1.00782504E+00  1.00782504E+00
  1.00782504E+00  3.49688527E+01
Atom fragment info                         I   N=          12
           0           0           0           0           0           0
           0           0           0           0           0           0
Atom residue num                           I   N=          12
           0           0           0           0           0           0
           0           0           0           0           0           0
Nuclear spins                              I   N=          12
           0           0           0           0           1           1
           1           1           1           1           1           3
Nuclear ZEff                               R   N=          12
 -3.60000000E+00 -3.60000000E+00 -3.60000000E+00 -3.60000000E+00 -1.00000000E+00
 -1.00000000E+00 -1.00000000E+00 -1.00000000E+00 -1.00000000E+00 -1.00000000E+00
 -1.00000000E+00 -1.42400000E+01
Nuclear ZNuc                               R   N=          12
  6.00000000E+00  6.00000000E+00  6.00000000E+00  6.00000000E+00  1.00000000E+00
  1.00000000E+00  1.00000000E+00  1.00000000E+00  1.00000000E+00  1.00000000E+00
  1.00000000E+00  1.70000000E+01
Nuclear QMom                               R   N=          12
  0.00000000E+00  0.00000000E+00  0.00000000E+00  0.00000000E+00  0.00000000E+00
  0.00000000E+00  0.00000000E+00  0.00000000E+00  0.00000000E+00  0.00000000E+00
  0.00000000E+00 -8.16500000E+00
Nuclear GFac                               R   N=          12
  0.00000000E+00  0.00000000E+00  0.00000000E+00  0.00000000E+00  2.79284600E+00
  2.79284600E+00  2.79284600E+00  2.79284600E+00  2.79284600E+00  2.79284600E+00
  2.79284600E+00  8.21874000E-01
MicOpt                                     I   N=          12
          -1          -1          -1          -1          -1          -1
          -1          -1          -1          -1          -1          -1
Number of residues                         I                0
Number of secondary structures             I                0
SymInf integers                            I   N=          26
           1           1           1           1           1           0
           0           0           0           0           0           0
           0           0           0           0           0           0
           0           0           0           0           0           0
           0           0
RotTr to input orientation                 R   N=          12
  9.99997472E-01 -1.13199276E-03  1.94264676E-03  1.13779415E-03  9.99994889E-01
 -2.98783273E-03 -1.93925463E-03  2.99003551E-03  9.99993649E-01 -1.77759569E-03
  9.59530097E-04  6.64124565E-05
Number of contracted shells                I               72
Number of primitive shells                 I              126
Pure/Cartesian d shells                    I                0
Pure/Cartesian f shells                    I                0
Highest angular momentum                   I                2
Largest degree of contraction              I                6
Shell types                                I   N=          72
           0          -1          -1          -1          -1          -2
           0          -1          -1          -1          -1          -2
           0          -1          -1          -1          -1          -2
           0          -1          -1          -1          -1          -2
           0           0           0           0           1           0
           0           0           0           1           0           0
           0           0           1           0           0           0
           0           1           0           0           0           0
           1           0           0           0           0           1
           0           0           0           0           1           0
           0           0           0           0           0          -1
           1           1           1           1           1          -2
Number of primitives per shell             I   N=          72
           6           3           1           1           1           1
           6           3           1           1           1           1
           6           3           1           1           1           1
           6           3           1           1           1           1
           3           1           1           1           1           3
           1           1           1           1           3           1
           1           1           1           3           1           1
           1           1           3           1           1           1
           1           3           1           1           1           1
           3           1           1           1           1           6
           3           1           1           1           1           1
           5           2           1           1           1           1
Shell to atom map                          I   N=          72
           1           1           1           1           1           1
           2           2           2           2           2           2
           3           3           3           3           3           3
           4           4           4           4           4           4
           5           5           5           5           5           6
           6           6           6           6           7           7
           7           7           7           8           8           8
           8           8           9           9           9           9
           9          10          10          10          10          10
          11          11          11          11          11          12
          12          12          12          12          12          12
          12          12          12          12          12          12
Primitive exponents                        R   N=         126
  4.56324000E+03  6.82024000E+02  1.54973000E+02  4.44553000E+01  1.30290000E+01
  1.82773000E+00  2.09642000E+01  4.80331000E+00  1.45933000E+00  4.83456000E-01
  1.45585000E-01  4.38000000E-02  6.26000000E-01  4.56324000E+03  6.82024000E+02
  1.54973000E+02  4.44553000E+01  1.30290000E+01  1.82773000E+00  2.09642000E+01
  4.80331000E+00  1.45933000E+00  4.83456000E-01  1.45585000E-01  4.38000000E-02
  6.26000000E-01  4.56324000E+03  6.82024000E+02  1.54973000E+02  4.44553000E+01
  1.30290000E+01  1.82773000E+00  2.09642000E+01  4.80331000E+00  1.45933000E+00
  4.83456000E-01  1.45585000E-01  4.38000000E-02  6.26000000E-01  4.56324000E+03
  6.82024000E+02  1.54973000E+02  4.44553000E+01  1.30290000E+01  1.82773000E+00
  2.09642000E+01  4.80331000E+00  1.45933000E+00  4.83456000E-01  1.45585000E-01
  4.38000000E-02  6.26000000E-01  3.38650000E+01  5.09479000E+00  1.15879000E+00
  3.25840000E-01  1.02741000E-01  3.60000000E-02  7.50000000E-01  3.38650000E+01
  5.09479000E+00  1.15879000E+00  3.25840000E-01  1.02741000E-01  3.60000000E-02
  7.50000000E-01  3.38650000E+01  5.09479000E+00  1.15879000E+00  3.25840000E-01
  1.02741000E-01  3.60000000E-02  7.50000000E-01  3.38650000E+01  5.09479000E+00
  1.15879000E+00  3.25840000E-01  1.02741000E-01  3.60000000E-02  7.50000000E-01
  3.38650000E+01  5.09479000E+00  1.15879000E+00  3.25840000E-01  1.02741000E-01
  3.60000000E-02  7.50000000E-01  3.38650000E+01  5.09479000E+00  1.15879000E+00
  3.25840000E-01  1.02741000E-01  3.60000000E-02  7.50000000E-01  3.38650000E+01
  5.09479000E+00  1.15879000E+00  3.25840000E-01  1.02741000E-01  3.60000000E-02
  7.50000000E-01  1.05819000E+05  1.58720000E+04  3.61965000E+03  1.03080000E+03
  3.39908000E+02  1.24538000E+02  1.24538000E+02  4.95135000E+01  2.08056000E+01
  6.58346000E+00  2.56468000E+00  5.59763000E-01  1.83273000E-01  4.83000000E-02
  5.89776000E+02  1.39849000E+02  4.51413000E+01  1.68733000E+01  2.77152000E+00
  6.74110000E+00  2.77152000E+00  1.02387000E+00  3.81368000E-01  1.09437000E-01
  7.50000000E-01
Contraction coefficients                   R   N=         126
  1.96665025E-03  1.52306019E-02  7.61269097E-02  2.60801033E-01  6.16462078E-01
  2.21006028E-01  1.14660081E-01  9.19999648E-01 -3.03068213E-03  1.00000000E+00
  1.00000000E+00  1.00000000E+00  1.00000000E+00  1.96665025E-03  1.52306019E-02
  7.61269097E-02  2.60801033E-01  6.16462078E-01  2.21006028E-01  1.14660081E-01
  9.19999648E-01 -3.03068213E-03  1.00000000E+00  1.00000000E+00  1.00000000E+00
  1.00000000E+00  1.96665025E-03  1.52306019E-02  7.61269097E-02  2.60801033E-01
  6.16462078E-01  2.21006028E-01  1.14660081E-01  9.19999648E-01 -3.03068213E-03
  1.00000000E+00  1.00000000E+00  1.00000000E+00  1.00000000E+00  1.96665025E-03
  1.52306019E-02  7.61269097E-02  2.60801033E-01  6.16462078E-01  2.21006028E-01
  1.14660081E-01  9.19999648E-01 -3.03068213E-03  1.00000000E+00  1.00000000E+00
  1.00000000E+00  1.00000000E+00  2.54938145E-02  1.90373109E-01  8.52161486E-01
  1.00000000E+00  1.00000000E+00  1.00000000E+00  1.00000000E+00  2.54938145E-02
  1.90373109E-01  8.52161486E-01  1.00000000E+00  1.00000000E+00  1.00000000E+00
  1.00000000E+00  2.54938145E-02  1.90373109E-01  8.52161486E-01  1.00000000E+00
  1.00000000E+00  1.00000000E+00  1.00000000E+00  2.54938145E-02  1.90373109E-01
  8.52161486E-01  1.00000000E+00  1.00000000E+00  1.00000000E+00  1.00000000E+00
  2.54938145E-02  1.90373109E-01  8.52161486E-01  1.00000000E+00  1.00000000E+00
  1.00000000E+00  1.00000000E+00  2.54938145E-02  1.90373109E-01  8.52161486E-01
  1.00000000E+00  1.00000000E+00  1.00000000E+00  1.00000000E+00  2.54938145E-02
  1.90373109E-01  8.52161486E-01  1.00000000E+00  1.00000000E+00  1.00000000E+00
  1.00000000E+00  7.38000247E-04  5.71800191E-03  2.94950099E-02  1.17286039E-01
  3.62949121E-01  5.84149195E-01  1.34176973E-01  6.24249876E-01  2.91755942E-01
  1.00000000E+00  1.00000000E+00  1.00000000E+00  1.00000000E+00  1.00000000E+00
  3.66556935E-03  2.83679194E-02  1.24756603E-01  3.39654631E-01  7.47585963E-01
 -1.57224381E+00  9.92388882E-01  1.00000000E+00  1.00000000E+00  1.00000000E+00
  1.00000000E+00
P(S=P) Contraction coefficients            R   N=         126
  0.00000000E+00  0.00000000E+00  0.00000000E+00  0.00000000E+00  0.00000000E+00
  0.00000000E+00  4.02486927E-02  2.37593957E-01  8.15853851E-01  1.00000000E+00
  1.00000000E+00  1.00000000E+00  0.00000000E+00  0.00000000E+00  0.00000000E+00
  0.00000000E+00  0.00000000E+00  0.00000000E+00  0.00000000E+00  4.02486927E-02
  2.37593957E-01  8.15853851E-01  1.00000000E+00  1.00000000E+00  1.00000000E+00
  0.00000000E+00  0.00000000E+00  0.00000000E+00  0.00000000E+00  0.00000000E+00
  0.00000000E+00  0.00000000E+00  4.02486927E-02  2.37593957E-01  8.15853851E-01
  1.00000000E+00  1.00000000E+00  1.00000000E+00  0.00000000E+00  0.00000000E+00
  0.00000000E+00  0.00000000E+00  0.00000000E+00  0.00000000E+00  0.00000000E+00
  4.02486927E-02  2.37593957E-01  8.15853851E-01  1.00000000E+00  1.00000000E+00
  1.00000000E+00  0.00000000E+00  0.00000000E+00  0.00000000E+00  0.00000000E+00
  0.00000000E+00  0.00000000E+00  0.00000000E+00  0.00000000E+00  0.00000000E+00
  0.00000000E+00  0.00000000E+00  0.00000000E+00  0.00000000E+00  0.00000000E+00
  0.00000000E+00  0.00000000E+00  0.00000000E+00  0.00000000E+00  0.00000000E+00
  0.00000000E+00  0.00000000E+00  0.00000000E+00  0.00000000E+00  0.00000000E+00
  0.00000000E+00  0.00000000E+00  0.00000000E+00  0.00000000E+00  0.00000000E+00
  0.00000000E+00  0.00000000E+00  0.00000000E+00  0.00000000E+00  0.00000000E+00
  0.00000000E+00  0.00000000E+00  0.00000000E+00  0.00000000E+00  0.00000000E+00
  0.00000000E+00  0.00000000E+00  0.00000000E+00  0.00000000E+00  0.00000000E+00
  0.00000000E+00  0.00000000E+00  0.00000000E+00  0.00000000E+00  0.00000000E+00
  0.00000000E+00  0.00000000E+00  0.00000000E+00  0.00000000E+00  0.00000000E+00
  0.00000000E+00  0.00000000E+00  0.00000000E+00  0.00000000E+00  0.00000000E+00
  0.00000000E+00  0.00000000E+00  0.00000000E+00  0.00000000E+00  1.00000000E+00
  0.00000000E+00  0.00000000E+00  0.00000000E+00  0.00000000E+00  0.00000000E+00
  0.00000000E+00  0.00000000E+00  0.00000000E+00  0.00000000E+00  0.00000000E+00
  0.00000000E+00
Coordinates of each shell                  R   N=         216
  8.77896594E-01  3.31749376E+00  7.55664528E-02  8.77896594E-01  3.31749376E+00
  7.55664528E-02  8.77896594E-01  3.31749376E+00  7.55664528E-02  8.77896594E-01
  3.31749376E+00  7.55664528E-02  8.77896594E-01  3.31749376E+00  7.55664528E-02
  8.77896594E-01  3.31749376E+00  7.55664528E-02  2.53032048E-02  6.52495557E-01
 -6.02794697E-01  2.53032048E-02  6.52495557E-01 -6.02794697E-01  2.53032048E-02
  6.52495557E-01 -6.02794697E-01  2.53032048E-02  6.52495557E-01 -6.02794697E-01
  2.53032048E-02  6.52495557E-01 -6.02794697E-01  2.53032048E-02  6.52495557E-01
 -6.02794697E-01 -2.26733143E+00 -1.84464467E-01  7.95908809E-01 -2.26733143E+00
 -1.84464467E-01  7.95908809E-01 -2.26733143E+00 -1.84464467E-01  7.95908809E-01
 -2.26733143E+00 -1.84464467E-01  7.95908809E-01 -2.26733143E+00 -1.84464467E-01
  7.95908809E-01 -2.26733143E+00 -1.84464467E-01  7.95908809E-01 -4.41106380E+00
 -9.48285801E-01 -2.81900380E-01 -4.41106380E+00 -9.48285801E-01 -2.81900380E-01
 -4.41106380E+00 -9.48285801E-01 -2.81900380E-01 -4.41106380E+00 -9.48285801E-01
 -2.81900380E-01 -4.41106380E+00 -9.48285801E-01 -2.81900380E-01 -4.41106380E+00
 -9.48285801E-01 -2.81900380E-01 -4.57186000E+00 -1.02882480E+00 -2.32732064E+00
 -4.57186000E+00 -1.02882480E+00 -2.32732064E+00 -4.57186000E+00 -1.02882480E+00
 -2.32732064E+00 -4.57186000E+00 -1.02882480E+00 -2.32732064E+00 -4.57186000E+00
 -1.02882480E+00 -2.32732064E+00  2.60319942E+00  3.81958780E+00 -9.37514775E-01
  2.60319942E+00  3.81958780E+00 -9.37514775E-01  2.60319942E+00  3.81958780E+00
 -9.37514775E-01  2.60319942E+00  3.81958780E+00 -9.37514775E-01  2.60319942E+00
  3.81958780E+00 -9.37514775E-01 -6.06218240E+00 -1.51534977E+00  7.89272465E-01
 -6.06218240E+00 -1.51534977E+00  7.89272465E-01 -6.06218240E+00 -1.51534977E+00
  7.89272465E-01 -6.06218240E+00 -1.51534977E+00  7.89272465E-01 -6.06218240E+00
 -1.51534977E+00  7.89272465E-01 -2.13863972E+00 -1.25219759E-01  2.84621880E+00
 -2.13863972E+00 -1.25219759E-01  2.84621880E+00 -2.13863972E+00 -1.25219759E-01
  2.84621880E+00 -2.13863972E+00 -1.25219759E-01  2.84621880E+00 -2.13863972E+00
 -1.25219759E-01  2.84621880E+00 -4.70593638E-01  6.04229121E-01 -2.61632580E+00
 -4.70593638E-01  6.04229121E-01 -2.61632580E+00 -4.70593638E-01  6.04229121E-01
 -2.61632580E+00 -4.70593638E-01  6.04229121E-01 -2.61632580E+00 -4.70593638E-01
  6.04229121E-01 -2.61632580E+00  1.28082357E+00  3.42105143E+00  2.09826043E+00
  1.28082357E+00  3.42105143E+00  2.09826043E+00  1.28082357E+00  3.42105143E+00
  2.09826043E+00  1.28082357E+00  3.42105143E+00  2.09826043E+00  1.28082357E+00
  3.42105143E+00  2.09826043E+00 -6.02395115E-01  4.68680478E+00 -3.77634828E-01
 -6.02395115E-01  4.68680478E+00 -3.77634828E-01 -6.02395115E-01  4.68680478E+00
 -3.77634828E-01 -6.02395115E-01  4.68680478E+00 -3.77634828E-01 -6.02395115E-01
  4.68680478E+00 -3.77634828E-01  2.62428356E+00 -1.58151253E+00  3.55507792E-02
  2.62428356E+00 -1.58151253E+00  3.55507792E-02  2.62428356E+00 -1.58151253E+00
  3.55507792E-02  2.62428356E+00 -1.58151253E+00  3.55507792E-02  2.62428356E+00
 -1.58151253E+00  3.55507792E-02  2.62428356E+00 -1.58151253E+00  3.55507792E-02
  2.62428356E+00 -1.58151253E+00  3.55507792E-02  2.62428356E+00 -1.58151253E+00
  3.55507792E-02  2.62428356E+00 -1.58151253E+00  3.55507792E-02  2.62428356E+00
 -1.58151253E+00  3.55507792E-02  2.62428356E+00 -1.58151253E+00  3.55507792E-02
  2.62428356E+00 -1.58151253E+00  3.55507792E-02  2.62428356E+00 -1.58151253E+00
  3.55507792E-02
Constraint Structure                       R   N=          36
  8.77896594E-01  3.31749376E+00  7.55664528E-02  2.53032048E-02  6.52495557E-01
 -6.02794697E-01 -2.26733143E+00 -1.84464467E-01  7.95908809E-01 -4.41106380E+00
 -9.48285801E-01 -2.81900380E-01 -4.57186000E+00 -1.02882480E+00 -2.32732064E+00
  2.60319942E+00  3.81958780E+00 -9.37514775E-01 -6.06218240E+00 -1.51534977E+00
  7.89272465E-01 -2.13863972E+00 -1.25219759E-01  2.84621880E+00 -4.70593638E-01
  6.04229121E-01 -2.61632580E+00  1.28082357E+00  3.42105143E+00  2.09826043E+00
 -6.02395115E-01  4.68680478E+00 -3.77634828E-01  2.62428356E+00 -1.58151253E+00
  3.55507792E-02
Num ILSW                                   I              100
ILSW                                       I   N=         100
           0           0           0           0           2           0
           0           0           0           0         402          -1
           5           0           0           0           0           0
           0           0           0           0           0           0
           1           0           0           0           0           0
           0           0      100000           0          -1           0
           0           0           0           0           0           0
           0           0           0           1           0           0
           0           0           1           0           0           0
           0           0           4          41           0           0
           0           0           5           0           0           0
           0           0           0           0           0           0
           0           0           0           0           0           0
           0           0           0           0           0           0
           0           0           0           0           0           0
           0           0           0           0           0           0
           0           0           0           0
Num RLSW                                   I               41
RLSW                                       R   N=          41
  8.00000000E-01  7.20000000E-01  1.00000000E+00  8.10000000E-01  2.00000000E-01
  0.00000000E+00  0.00000000E+00  1.00000000E+00  0.00000000E+00  0.00000000E+00
  0.00000000E+00  0.00000000E+00  1.00000000E+00  0.00000000E+00  0.00000000E+00
  0.00000000E+00  0.00000000E+00  1.00000000E+00  0.00000000E+00  0.00000000E+00
  0.00000000E+00  0.00000000E+00  1.00000000E+00  0.00000000E+00  0.00000000E+00
  0.00000000E+00  0.00000000E+00  1.00000000E+00  0.00000000E+00  0.00000000E+00
  0.00000000E+00  0.00000000E+00  0.00000000E+00  0.00000000E+00  0.00000000E+00
  0.00000000E+00  0.00000000E+00  0.00000000E+00  1.00000000E+00  1.00000000E+00
  0.00000000E+00
MxBond                                     I                4
NBond                                      I   N=          12
           4           4           3           3           1           1
           1           1           1           1           1           1
IBond                                      I   N=          48
           2           6          10          11           1           3
           9          12           2           4           8           0
           3           5           7           0           4           0
           0           0           1           0           0           0
           4           0           0           0           3           0
           0           0           2           0           0           0
           1           0           0           0           1           0
           0           0           2           0           0           0
RBond                                      R   N=          48
  1.00000000E+00  1.00000000E+00  1.00000000E+00  1.00000000E+00  1.00000000E+00
  1.00000000E+00  1.00000000E+00  1.00000000E+00  1.00000000E+00  2.00000000E+00
  1.00000000E+00  0.00000000E+00  2.00000000E+00  1.00000000E+00  1.00000000E+00
  0.00000000E+00  1.00000000E+00  0.00000000E+00  0.00000000E+00  0.00000000E+00
  1.00000000E+00  0.00000000E+00  0.00000000E+00  0.00000000E+00  1.00000000E+00
  0.00000000E+00  0.00000000E+00  0.00000000E+00  1.00000000E+00  0.00000000E+00
  0.00000000E+00  0.00000000E+00  1.00000000E+00  0.00000000E+00  0.00000000E+00
  0.00000000E+00  1.00000000E+00  0.00000000E+00  0.00000000E+00  0.00000000E+00
  1.00000000E+00  0.00000000E+00  0.00000000E+00  0.00000000E+00  1.00000000E+00
  0.00000000E+00  0.00000000E+00  0.00000000E+00
Virial Ratio                               R      2.003070997860243E+00
SCF Energy                                 R     -6.168940068157804E+02
Total Energy                               R     -6.168940068157804E+02
RMS Density                                R      4.567405196250086E-12
Nuclear derivative order                   I                0
External E-field                           R   N=          35
  0.00000000E+00  0.00000000E+00  0.00000000E+00  0.00000000E+00  0.00000000E+00
  0.00000000E+00  0.00000000E+00  0.00000000E+00  0.00000000E+00  0.00000000E+00
  0.00000000E+00  0.00000000E+00  0.00000000E+00  0.00000000E+00  0.00000000E+00
  0.00000000E+00  0.00000000E+00  0.00000000E+00  0.00000000E+00  0.00000000E+00
  0.00000000E+00  0.00000000E+00  0.00000000E+00  0.00000000E+00  0.00000000E+00
  0.00000000E+00  0.00000000E+00  0.00000000E+00  0.00000000E+00  0.00000000E+00
  0.00000000E+00  0.00000000E+00  0.00000000E+00  0.00000000E+00  0.00000000E+00
IOpCl                                      I                0
IROHF                                      I                0
Alpha Orbital Energies                     R   N=         167
 -1.01538244E+02 -1.02474223E+01 -1.01926582E+01 -1.01839141E+01 -1.01806828E+01
 -9.45249685E+00 -7.21695707E+00 -7.20737913E+00 -7.20720046E+00 -8.69306674E-01
 -7.88256339E-01 -7.42397176E-01 -6.40662474E-01 -5.75533718E-01 -4.88049288E-01
 -4.72105520E-01 -4.47151190E-01 -4.16255073E-01 -3.99957076E-01 -3.76659562E-01
 -3.65701486E-01 -3.07891940E-01 -3.01191930E-01 -2.80609451E-01 -3.29469832E-02
 -7.40827957E-03  6.32356139E-03  7.57936073E-03  2.23053918E-02  2.88671318E-02
  3.84925425E-02  4.15097490E-02  6.38301136E-02  6.49205394E-02  7.29496904E-02
  8.35262260E-02  8.71840397E-02  9.90557046E-02  1.10821089E-01  1.16037965E-01
  1.19364687E-01  1.22277777E-01  1.28588207E-01  1.30956295E-01  1.36296950E-01
  1.42481443E-01  1.50644961E-01  1.56600556E-01  1.60917233E-01  1.64536796E-01
  1.71945792E-01  1.87935833E-01  1.91987863E-01  2.08992539E-01  2.21166304E-01
  2.26229236E-01  2.46498159E-01  2.62789277E-01  2.68185836E-01  2.94335391E-01
  3.42318768E-01  3.58153205E-01  3.89454119E-01  4.30532906E-01  4.30766380E-01
  4.46168821E-01  4.59253928E-01  4.77077199E-01  4.86151942E-01  4.94980152E-01
  5.21287551E-01  5.29981696E-01  5.65958194E-01  5.85896261E-01  5.94214710E-01
  6.22641418E-01  6.35268599E-01  6.44581394E-01  6.58137140E-01  6.63372863E-01
  6.88339077E-01  7.03834674E-01  7.35770592E-01  7.41059931E-01  7.83965948E-01
  8.16918606E-01  8.28138418E-01  8.61232741E-01  8.90790576E-01  9.05402238E-01
  9.41154009E-01  9.64396341E-01  1.00433851E+00  1.03443744E+00  1.05924717E+00
  1.08711299E+00  1.13723306E+00  1.16776717E+00  1.19447053E+00  1.30170454E+00
  1.38621322E+00  1.42954784E+00  1.45186453E+00  1.47676773E+00  1.50537911E+00
  1.54055034E+00  1.55871130E+00  1.58844219E+00  1.60245558E+00  1.63613061E+00
  1.66783860E+00  1.69037807E+00  1.70811006E+00  1.71923358E+00  1.77133566E+00
  1.78872801E+00  1.85939387E+00  1.87959433E+00  1.94207974E+00  1.97962566E+00
  2.01351943E+00  2.07701243E+00  2.11193564E+00  2.18101917E+00  2.20018607E+00
  2.20552246E+00  2.26104922E+00  2.29593327E+00  2.30612906E+00  2.36081654E+00
  2.37847523E+00  2.45371864E+00  2.46124667E+00  2.49441760E+00  2.53204888E+00
  2.56189463E+00  2.57556957E+00  2.58491239E+00  2.59534325E+00  2.64431701E+00
  2.71846022E+00  2.74242730E+00  2.74548096E+00  2.76657116E+00  2.84687438E+00
  2.86262783E+00  2.93543039E+00  3.07633405E+00  3.08369017E+00  3.18786590E+00
  3.42575617E+00  3.52057067E+00  3.71918720E+00  3.79242691E+00  3.80507211E+00
  3.93930569E+00  4.10313649E+00  4.29462387E+00  9.75464958E+00  2.37130376E+01
  2.38009883E+01  2.39455652E+01  2.42499096E+01  2.59203364E+01  2.59678239E+01
  2.64425517E+01  2.15743608E+02
Alpha MO coefficients                      R   N=       27889
  1.79216849E-07 -3.72308109E-07 -2.62228128E-06 -2.19973172E-06 -1.19408967E-06
 -1.23060299E-06  1.96371832E-05  1.56286285E-05  8.91014297E-06  2.42961330E-05
  3.34639986E-05  2.59797177E-05  1.73216266E-05 -1.66452872E-03 -1.66083837E-04
  5.15462955E-04  3.83754545E-05  6.66070055E-06 -2.45281545E-06 -4.70337554E-06
  1.33480586E-05  3.90008146E-07  1.79070909E-06 -3.88504809E-06  1.30960809E-05
 -1.19500843E-05  6.76873932E-06 -1.04614531E-05 -1.76900206E-05  1.86726582E-05
 -2.72959921E-05  1.58013201E-04  1.27578619E-04 -1.17918950E-04  8.63835441E-06
  3.61709137E-03 -4.55155519E-04  4.85405390E-04  8.59648525E-04  1.29375657E-05
  1.83510402E-07  3.23677112E-06 -2.40656104E-06  9.50195480E-06 -6.50221173E-07
  1.89120486E-06  4.11532588E-06 -2.55574289E-06 -4.45798650E-06 -9.51403225E-06
 -2.45124075E-05  9.78070224E-06  2.61515602E-05  2.79270653E-05  7.18520723E-06
 -1.42163348E-05 -7.70775500E-05 -9.57994125E-04 -1.26487245E-03 -4.04261107E-04
 -1.50171047E-04  5.86395383E-06  5.83797074E-06 -6.16590408E-06  1.28945448E-06
 -4.12609390E-06  3.30044319E-07 -9.80677048E-07 -1.47066711E-06  8.11179610E-07
  5.47662701E-07  1.02018933E-05  6.71650705E-06 -3.18433820E-06  2.30383228E-06
 -7.24402627E-05 -9.00659493E-05 -2.14706741E-05  6.17589927E-05 -1.81639387E-03
 -3.60363344E-04 -1.90173517E-04 -1.44475006E-04 -5.22194456E-06 -2.10729030E-06
 -3.44393010E-06 -1.64489702E-06 -1.57100542E-06 -3.21031386E-06  3.63136349E-05
  6.13381887E-05  2.93610309E-05  6.62848840E-06 -1.25657142E-08  6.77805876E-06
  1.25723067E-05 -8.64829195E-05  8.27035062E-05  2.29766207E-04  8.77989373E-06
  1.30761522E-05 -1.07835674E-05  2.31056941E-06 -2.28090048E-05 -4.66725185E-05
 -1.17068561E-04 -1.32718323E-06 -4.62307904E-07  1.41147500E-06  5.32992494E-06
 -3.02387313E-05  7.21444828E-05  1.58857004E-04 -1.09030831E-05  2.07563621E-06
  1.28375491E-05 -8.08635896E-07 -6.27848423E-05 -8.81002730E-05  1.67870120E-04
 -1.32578941E-05  7.01422856E-06 -2.06624357E-05  1.01103491E-05 -6.36169083E-05
 -2.00787313E-05  7.57326409E-05 -4.51961986E-06  1.25647353E-05  1.53297708E-05
 -7.42662266E-06  3.47219652E-05 -1.37335390E-04 -3.26046003E-04 -7.92743913E-08
 -3.98767081E-06 -6.08012173E-07  4.11609763E-01  6.54076194E-01  1.50037888E-02