 Entering Gaussian System, Link 0=g09
 Input=input.dat
 Output=output.dat
 Initial command:
 /cerebro/home/software/apps/g09/l1.exe /scratch/crawdad/Gau-12218.inp -scrdir=/scratch/crawdad/
 Entering Link 1 = /cerebro/home/software/apps/g09/l1.exe PID=     12219.
  
 Copyright (c) 1988,1990,1992,1993,1995,1998,2003,2009, Gaussian, Inc.
                  All Rights Reserved.
  
 This is part of the Gaussian(R) 09 program.  It is based on
 the Gaussian(R) 03 system (copyright 2003, Gaussian, Inc.),
 the Gaussian(R) 98 system (copyright 1998, Gaussian, Inc.),
 the Gaussian(R) 94 system (copyright 1995, Gaussian, Inc.),
 the Gaussian 92(TM) system (copyright 1992, Gaussian, Inc.),
 the Gaussian 90(TM) system (copyright 1990, Gaussian, Inc.),
 the Gaussian 88(TM) system (copyright 1988, Gaussian, Inc.),
 the Gaussian 86(TM) system (copyright 1986, Carnegie Mellon
 University), and the Gaussian 82(TM) system (copyright 1983,
 Carnegie Mellon University). Gaussian is a federally registered
 trademark of Gaussian, Inc.
  
 This software contains proprietary and confidential information,
 including trade secrets, belonging to Gaussian, Inc.
  
 This software is provided under written license and may be
 used, copied, transmitted, or stored only in accord with that
 written license.
  
 The following legend is applicable only to US Government
 contracts under FAR:
  
                    RESTRICTED RIGHTS LEGEND
  
 Use, reproduction and disclosure by the US Government is
 subject to restrictions as set forth in subparagraphs (a)
 and (c) of the Commercial Computer Software - Restricted
 Rights clause in FAR 52.227-19.
  
 Gaussian, Inc.
 340 Quinnipiac St., Bldg. 40, Wallingford CT 06492
  
  
 ---------------------------------------------------------------
 Warning -- This program may not be used in any manner that
 competes with the business of Gaussian, Inc. or will provide
 assistance to any competitor of Gaussian, Inc.  The licensee
 of this program is prohibited from giving any competitor of
 Gaussian, Inc. access to this program.  By using this program,
 the user acknowledges that Gaussian, Inc. is engaged in the
 business of creating and licensing software in the field of
 computational chemistry and represents and warrants to the
 licensee that it is not a competitor of Gaussian, Inc. and that
 it will not use this program in any manner prohibited above.
 ---------------------------------------------------------------
  

 Cite this work as:
 Gaussian 09, Revision A.02,
 M. J. Frisch, G. W. Trucks, H. B. Schlegel, G. E. Scuseria, 
 M. A. Robb, J. R. Cheeseman, G. Scalmani, V. Barone, B. Mennucci, 
 G. A. Petersson, H. Nakatsuji, M. Caricato, X. Li, H. P. Hratchian, 
 A. F. Izmaylov, J. Bloino, G. Zheng, J. L. Sonnenberg, M. Hada, 
 M. Ehara, K. Toyota, R. Fukuda, J. Hasegawa, M. Ishida, T. Nakajima, 
 Y. Honda, O. Kitao, H. Nakai, T. Vreven, J. A. Montgomery, Jr., 
 J. E. Peralta, F. Ogliaro, M. Bearpark, J. J. Heyd, E. Brothers, 
 K. N. Kudin, V. N. Staroverov, R. Kobayashi, J. Normand, 
 K. Raghavachari, A. Rendell, J. C. Burant, S. S. Iyengar, J. Tomasi, 
 M. Cossi, N. Rega, J. M. Millam, M. Klene, J. E. Knox, J. B. Cross, 
 V. Bakken, C. Adamo, J. Jaramillo, R. Gomperts, R. E. Stratmann, 
 O. Yazyev, A. J. Austin, R. Cammi, C. Pomelli, J. W. Ochterski, 
 R. L. Martin, K. Morokuma, V. G. Zakrzewski, G. A. Voth, 
 P. Salvador, J. J. Dannenberg, S. Dapprich, A. D. Daniels, 
 O. Farkas, J. B. Foresman, J. V. Ortiz, J. Cioslowski, 
 and D. J. Fox, Gaussian, Inc., Wallingford CT, 2009.
 
 ******************************************
 Gaussian 09:  EM64L-G09RevA.02 11-Jun-2009
                10-Jul-2013 
 ******************************************
 %chk=vibave
 %mem=1000mb
 %nproc=1
 Will use up to    1 processors via shared memory.
 ----------------------------------------------------------------------
 #P B3LYP/6-311++G** scf(conver=11) int=ultrafine polar=optrot cphf(rdf
 req,conver=11)
 ----------------------------------------------------------------------
 1/38=1,83=21/1;
 2/12=2,17=6,18=5,40=1/2;
 3/5=4,6=6,7=1111,11=2,16=1,25=1,30=1,36=2,74=-5,75=-5/1,2,3;
 4//1;
 5/5=2,6=11,38=5,96=-2,98=1/2;
 8/6=4,10=90,11=11/1;
 10/6=1,7=11,13=10,46=8,60=-2,72=3/2;
 6/7=2,8=2,9=2,10=2,28=1/1;
 99/5=1,9=1/99;
 Leave Link    1 at Wed Jul 10 17:19:08 2013, MaxMem=  131072000 cpu:       0.1
 (Enter /cerebro/home/software/apps/g09/l101.exe)
 -----------------------------
 (R)-3-chloro-1-butene tau=120
 -----------------------------
 Symbolic Z-matrix:
 Charge =  0 Multiplicity = 1
 C                     0.4816    1.80309   0.03533 
 C                     0.00089   0.38528  -0.30458 
 C                    -1.23727  -0.09913   0.40768 
 C                    -2.37688  -0.51654  -0.15341 
 H                    -2.53289  -0.5387   -1.22983 
 H                     1.37289   2.04794  -0.54638 
 H                    -3.20168  -0.85433   0.46877 
 H                    -1.1607   -0.11537   1.49418 
 H                    -0.12926   0.29508  -1.38269 
 H                     0.71191   1.92139   1.09716 
 H                    -0.30881   2.51304  -0.2301 
 Cl                    1.41135  -0.86169   0.02399 
 
 NAtoms=     12 NQM=     12 NQMF=      0 NMic=      0 NMicF=      0 NTot=     12.
                    Isotopes and Nuclear Properties:
 (Nuclear quadrupole moments (NQMom) in fm**2, nuclear magnetic moments (NMagM)
  in nuclear magnetons)

  Atom         1           2           3           4           5           6           7           8           9          10
 IAtWgt=          12          12          12          12           1           1           1           1           1           1
 AtmWgt=  12.0000000  12.0000000  12.0000000  12.0000000   1.0078250   1.0078250   1.0078250   1.0078250   1.0078250   1.0078250
 NucSpn=           0           0           0           0           1           1           1           1           1           1
 AtZEff=   0.0000000   0.0000000   0.0000000   0.0000000   0.0000000   0.0000000   0.0000000   0.0000000   0.0000000   0.0000000
 NQMom=    0.0000000   0.0000000   0.0000000   0.0000000   0.0000000   0.0000000   0.0000000   0.0000000   0.0000000   0.0000000
 NMagM=    0.0000000   0.0000000   0.0000000   0.0000000   2.7928460   2.7928460   2.7928460   2.7928460   2.7928460   2.7928460

  Atom        11          12
 IAtWgt=           1          35
 AtmWgt=   1.0078250  34.9688527
 NucSpn=           1           3
 AtZEff=   0.0000000   0.0000000
 NQMom=    0.0000000  -8.1650000
 NMagM=    2.7928460   0.8218740
 Using perturbation frequencies:    0.071980    0.077357    0.104503    0.128347
 Leave Link  101 at Wed Jul 10 17:19:08 2013, MaxMem=  131072000 cpu:       0.1
 (Enter /cerebro/home/software/apps/g09/l202.exe)
                          Input orientation:                          
 ---------------------------------------------------------------------
 Center     Atomic      Atomic             Coordinates (Angstroms)
 Number     Number       Type             X           Y           Z
 ---------------------------------------------------------------------
      1          6           0        0.481600    1.803086    0.035331
      2          6           0        0.000888    0.385282   -0.304578
      3          6           0       -1.237273   -0.099129    0.407685
      4          6           0       -2.376880   -0.516538   -0.153408
      5          1           0       -2.532887   -0.538705   -1.229831
      6          1           0        1.372894    2.047943   -0.546378
      7          1           0       -3.201683   -0.854328    0.468768
      8          1           0       -1.160704   -0.115372    1.494179
      9          1           0       -0.129258    0.295082   -1.382688
     10          1           0        0.711908    1.921394    1.097163
     11          1           0       -0.308812    2.513036   -0.230096
     12         17           0        1.411347   -0.861693    0.023987
 ---------------------------------------------------------------------
                    Distance matrix (angstroms):
                    1          2          3          4          5
     1  C    0.000000
     2  C    1.535185   0.000000
     3  C    2.590675   1.508315   0.000000
     4  C    3.686080   2.547531   1.337071   0.000000
     5  H    4.021412   2.851291   2.133846   1.087895   0.000000
     6  H    1.092128   2.169173   3.511855   4.559802   4.734235
     7  H    4.562487   3.520107   2.105460   1.086970   1.852605
     8  H    2.916484   2.198971   1.089310   2.086758   3.079339
     9  H    2.158241   1.089677   2.142086   2.687314   2.548724
    10  H    1.092944   2.197741   2.890882   4.128928   4.689955
    11  H    1.095095   2.151465   2.844681   3.668937   3.906290
    12  Cl   2.822340   1.911098   2.782789   3.808053   4.151309
                    6          7          8          9         10
     6  H    0.000000
     7  H    5.511846   0.000000
     8  H    3.906779   2.400649   0.000000
     9  H    2.455280   3.766805   3.083620   0.000000
    10  H    1.775991   4.838977   2.795123   3.082550   0.000000
    11  H    1.773268   4.494024   3.256896   2.505998   1.775818
    12  Cl   2.965262   4.634428   3.055144   2.385441   3.063738
                   11         12
    11  H    0.000000
    12  Cl   3.796353   0.000000
 Stoichiometry    C4H7Cl
 Framework group  C1[X(C4H7Cl)]
 Deg. of freedom    30
 Full point group                 C1      NOp   1
 Largest Abelian subgroup         C1      NOp   1
 Largest concise Abelian subgroup C1      NOp   1
                         Standard orientation:                         
 ---------------------------------------------------------------------
 Center     Atomic      Atomic             Coordinates (Angstroms)
 Number     Number       Type             X           Y           Z
 ---------------------------------------------------------------------
      1          6           0        0.491364    1.799158    0.050892
      2          6           0        0.003732    0.386667   -0.301070
      3          6           0       -1.236816   -0.097720    0.407043
      4          6           0       -2.378429   -0.504755   -0.157583
      5          1           0       -2.534496   -0.516997   -1.234156
      6          1           0        1.383870    2.044590   -0.528712
      7          1           0       -3.204901   -0.843786    0.461696
      8          1           0       -1.160373   -0.123583    1.493359
      9          1           0       -0.126809    0.306284   -1.379909
     10          1           0        0.722203    1.907296    1.113693
     11          1           0       -0.295552    2.515201   -0.208485
     12         17           0        1.408056   -0.869947    0.016872
 ---------------------------------------------------------------------
 Rotational constants (GHZ):      5.2977650      2.6547804      1.9146795
 Leave Link  202 at Wed Jul 10 17:19:08 2013, MaxMem=  131072000 cpu:       0.0
 (Enter /cerebro/home/software/apps/g09/l301.exe)
 Standard basis: 6-311++G(d,p) (5D, 7F)
 Ernie: Thresh=  0.10000D-02 Tol=  0.10000D-05 Strict=F.
 There are   167 symmetry adapted basis functions of A   symmetry.
 Integral buffers will be    131072 words long.
 Raffenetti 2 integral format.
 Two-electron integral symmetry is turned on.
   167 basis functions,   260 primitive gaussians,   172 cartesian basis functions
    24 alpha electrons       24 beta electrons
       nuclear repulsion energy       208.1490041358 Hartrees.
 IExCor=  402 DFT=T Ex+Corr=B3LYP ExCW=0 ScaHFX=  0.200000
 ScaDFX=  0.800000  0.720000  1.000000  0.810000 ScalE2=  1.000000  1.000000
 IRadAn=      5 IRanWt=     -1 IRanGd=            0 ICorTp=0
 NAtoms=   12 NActive=   12 NUniq=   12 SFac= 7.50D-01 NAtFMM=   80 NAOKFM=F Big=F
 Leave Link  301 at Wed Jul 10 17:19:09 2013, MaxMem=  131072000 cpu:       0.1
 (Enter /cerebro/home/software/apps/g09/l302.exe)
 NPDir=0 NMtPBC=     1 NCelOv=     1 NCel=       1 NClECP=     1 NCelD=      1
         NCelK=      1 NCelE2=     1 NClLst=     1 CellRange=     0.0.
 One-electron integrals computed using PRISM.
 NBasis=   167 RedAO= T  NBF=   167
 NBsUse=   167 1.00D-06 NBFU=   167
 Precomputing XC quadrature grid using
 IXCGrd= 2 IRadAn=           5 IRanWt=          -1 IRanGd=           0 AccXCQ= 1.00D-10.
 NRdTot=    1019 NPtTot=      274288 NUsed=      281590 NTot=      281622
 NSgBfM=   172   172   172   172   172 NAtAll=    12    12.
 Leave Link  302 at Wed Jul 10 17:19:09 2013, MaxMem=  131072000 cpu:       0.6
 (Enter /cerebro/home/software/apps/g09/l303.exe)
 DipDrv:  MaxL=2.
 Leave Link  303 at Wed Jul 10 17:19:09 2013, MaxMem=  131072000 cpu:       0.1
 (Enter /cerebro/home/software/apps/g09/l401.exe)
 Harris functional with IExCor=  402 diagonalized for initial guess.
 ExpMin= 3.60D-02 ExpMax= 1.06D+05 ExpMxC= 3.62D+03 IAcc=3 IRadAn=         5 AccDes= 0.00D+00
 HarFok:  IExCor=  402 AccDes= 0.00D+00 IRadAn=         5 IDoV= 1
 ScaDFX=  1.000000  1.000000  1.000000  1.000000
 FoFCou: FMM=F IPFlag=           0 FMFlag=      100000 FMFlg1=           0
         NFxFlg=           0 DoJE=T BraDBF=F KetDBF=T FulRan=T
         Omega=  0.000000  0.000000  1.000000  0.000000  0.000000 ICntrl=     500 IOpCl=  0
         NMat0=    1 NMatS0=    1 NMatT0=    0 NMatD0=    1 NMtDS0=    0 NMtDT0=    0
         I1Cent=           4 NGrid=           0.
 Petite list used in FoFCou.
 Harris En= -616.910446125389    
 Initial guess orbital symmetries:
       Occupied  (A) (A) (A) (A) (A) (A) (A) (A) (A) (A) (A) (A)
                 (A) (A) (A) (A) (A) (A) (A) (A) (A) (A) (A) (A)
       Virtual   (A) (A) (A) (A) (A) (A) (A) (A) (A) (A) (A) (A)
                 (A) (A) (A) (A) (A) (A) (A) (A) (A) (A) (A) (A)
                 (A) (A) (A) (A) (A) (A) (A) (A) (A) (A) (A) (A)
                 (A) (A) (A) (A) (A) (A) (A) (A) (A) (A) (A) (A)
                 (A) (A) (A) (A) (A) (A) (A) (A) (A) (A) (A) (A)
                 (A) (A) (A) (A) (A) (A) (A) (A) (A) (A) (A) (A)
                 (A) (A) (A) (A) (A) (A) (A) (A) (A) (A) (A) (A)
                 (A) (A) (A) (A) (A) (A) (A) (A) (A) (A) (A) (A)
                 (A) (A) (A) (A) (A) (A) (A) (A) (A) (A) (A) (A)
                 (A) (A) (A) (A) (A) (A) (A) (A) (A) (A) (A) (A)
                 (A) (A) (A) (A) (A) (A) (A) (A) (A) (A) (A) (A)
                 (A) (A) (A) (A) (A) (A) (A) (A) (A) (A) (A)
 The electronic state of the initial guess is 1-A.
 Leave Link  401 at Wed Jul 10 17:19:17 2013, MaxMem=  131072000 cpu:       7.8
 (Enter /cerebro/home/software/apps/g09/l502.exe)
 Closed shell SCF:
 Requested convergence on RMS density matrix=1.00D-11 within 128 cycles.
 Requested convergence on MAX density matrix=1.00D-09.
 Requested convergence on             energy=1.00D-09.
 No special actions if energy rises.
 Using DIIS extrapolation, IDIIS=  1040.
 Integral symmetry usage will be decided dynamically.
       281469 words used for storage of precomputed grid.
 Keep R1 ints in memory in canonical form, NReq=113664361.
 IEnd=      390694 IEndB=      390694 NGot=   131072000 MDV=    20042794
 LenX=    20042794 LenY=    20012769
 Symmetry not used in FoFDir.
 MinBra= 0 MaxBra= 2 Meth= 1.
 IRaf=       0 NMat=   1 IRICut=       1 DoRegI=T DoRafI=F ISym2E= 0 JSym2E=0.

 Cycle   1  Pass 1  IDiag  1:
 E= -616.729171319128    
 DIIS: error= 2.41D-02 at cycle   1 NSaved=   1.
 NSaved= 1 IEnMin= 1 EnMin= -616.729171319128     IErMin= 1 ErrMin= 2.41D-02
 ErrMax= 2.41D-02 EMaxC= 1.00D-01 BMatC= 1.96D-01 BMatP= 1.96D-01
 IDIUse=3 WtCom= 7.59D-01 WtEn= 2.41D-01
 Coeff-Com:  0.100D+01
 Coeff-En:   0.100D+01
 Coeff:      0.100D+01
 Gap=     0.378 Goal=   None    Shift=    0.000
 GapD=    0.378 DampG=1.000 DampE=0.500 DampFc=0.5000 IDamp=-1.
 Damping current iteration by 5.00D-01
 RMSDP=5.88D-03 MaxDP=1.92D-01              OVMax= 2.20D-01

 Cycle   2  Pass 1  IDiag  1:
 E= -616.797923113161     Delta-E=       -0.068751794033 Rises=F Damp=T
 DIIS: error= 6.16D-03 at cycle   2 NSaved=   2.
 NSaved= 2 IEnMin= 2 EnMin= -616.797923113161     IErMin= 2 ErrMin= 6.16D-03
 ErrMax= 6.16D-03 EMaxC= 1.00D-01 BMatC= 1.23D-02 BMatP= 1.96D-01
 IDIUse=3 WtCom= 9.38D-01 WtEn= 6.16D-02
 Coeff-Com:  0.308D-01 0.969D+00
 Coeff-En:   0.172D+00 0.828D+00
 Coeff:      0.394D-01 0.961D+00
 Gap=     0.284 Goal=   None    Shift=    0.000
 RMSDP=3.78D-03 MaxDP=1.37D-01 DE=-6.88D-02 OVMax= 1.37D-01

 Cycle   3  Pass 1  IDiag  1:
 E= -616.887337261466     Delta-E=       -0.089414148305 Rises=F Damp=F
 DIIS: error= 6.73D-03 at cycle   3 NSaved=   3.
 NSaved= 3 IEnMin= 3 EnMin= -616.887337261466     IErMin= 2 ErrMin= 6.16D-03
 ErrMax= 6.73D-03 EMaxC= 1.00D-01 BMatC= 5.22D-03 BMatP= 1.23D-02
 IDIUse=3 WtCom= 9.33D-01 WtEn= 6.73D-02
 Coeff-Com: -0.682D-01 0.354D+00 0.715D+00
 Coeff-En:   0.000D+00 0.000D+00 0.100D+01
 Coeff:     -0.636D-01 0.330D+00 0.734D+00
 Gap=     0.254 Goal=   None    Shift=    0.000
 RMSDP=1.69D-03 MaxDP=4.60D-02 DE=-8.94D-02 OVMax= 3.81D-02

 Cycle   4  Pass 1  IDiag  1:
 E= -616.891453087160     Delta-E=       -0.004115825694 Rises=F Damp=F
 DIIS: error= 3.94D-03 at cycle   4 NSaved=   4.
 NSaved= 4 IEnMin= 4 EnMin= -616.891453087160     IErMin= 4 ErrMin= 3.94D-03
 ErrMax= 3.94D-03 EMaxC= 1.00D-01 BMatC= 2.00D-03 BMatP= 5.22D-03
 IDIUse=3 WtCom= 9.61D-01 WtEn= 3.94D-02
 Coeff-Com: -0.390D-01 0.128D+00 0.446D+00 0.465D+00
 Coeff-En:   0.000D+00 0.000D+00 0.246D+00 0.754D+00
 Coeff:     -0.375D-01 0.123D+00 0.438D+00 0.476D+00
 Gap=     0.239 Goal=   None    Shift=    0.000
 RMSDP=5.31D-04 MaxDP=1.42D-02 DE=-4.12D-03 OVMax= 1.24D-02

 Cycle   5  Pass 1  IDiag  1:
 E= -616.893378838251     Delta-E=       -0.001925751091 Rises=F Damp=F
 DIIS: error= 5.12D-04 at cycle   5 NSaved=   5.
 NSaved= 5 IEnMin= 5 EnMin= -616.893378838251     IErMin= 5 ErrMin= 5.12D-04
 ErrMax= 5.12D-04 EMaxC= 1.00D-01 BMatC= 5.90D-05 BMatP= 2.00D-03
 IDIUse=3 WtCom= 9.95D-01 WtEn= 5.12D-03
 Coeff-Com: -0.134D-01 0.389D-01 0.173D+00 0.220D+00 0.581D+00
 Coeff-En:   0.000D+00 0.000D+00 0.000D+00 0.000D+00 0.100D+01
 Coeff:     -0.133D-01 0.387D-01 0.172D+00 0.219D+00 0.583D+00
 Gap=     0.239 Goal=   None    Shift=    0.000
 RMSDP=8.80D-05 MaxDP=2.97D-03 DE=-1.93D-03 OVMax= 5.64D-03

 Cycle   6  Pass 1  IDiag  1:
 E= -616.893424090812     Delta-E=       -0.000045252561 Rises=F Damp=F
 DIIS: error= 3.17D-04 at cycle   6 NSaved=   6.
 NSaved= 6 IEnMin= 6 EnMin= -616.893424090812     IErMin= 6 ErrMin= 3.17D-04
 ErrMax= 3.17D-04 EMaxC= 1.00D-01 BMatC= 1.69D-05 BMatP= 5.90D-05
 IDIUse=3 WtCom= 9.97D-01 WtEn= 3.17D-03
 Coeff-Com: -0.357D-02 0.708D-02 0.535D-01 0.738D-01 0.367D+00 0.502D+00
 Coeff-En:   0.000D+00 0.000D+00 0.000D+00 0.000D+00 0.233D+00 0.767D+00
 Coeff:     -0.356D-02 0.706D-02 0.533D-01 0.736D-01 0.366D+00 0.503D+00
 Gap=     0.239 Goal=   None    Shift=    0.000
 RMSDP=4.36D-05 MaxDP=1.35D-03 DE=-4.53D-05 OVMax= 2.39D-03

 Cycle   7  Pass 1  IDiag  1:
 E= -616.893440855513     Delta-E=       -0.000016764701 Rises=F Damp=F
 DIIS: error= 4.33D-05 at cycle   7 NSaved=   7.
 NSaved= 7 IEnMin= 7 EnMin= -616.893440855513     IErMin= 7 ErrMin= 4.33D-05
 ErrMax= 4.33D-05 EMaxC= 1.00D-01 BMatC= 6.55D-07 BMatP= 1.69D-05
 IDIUse=1 WtCom= 1.00D+00 WtEn= 0.00D+00
 Coeff-Com: -0.756D-03 0.452D-03 0.140D-01 0.193D-01 0.135D+00 0.250D+00
 Coeff-Com:  0.582D+00
 Coeff:     -0.756D-03 0.452D-03 0.140D-01 0.193D-01 0.135D+00 0.250D+00
 Coeff:      0.582D+00
 Gap=     0.239 Goal=   None    Shift=    0.000
 RMSDP=9.05D-06 MaxDP=3.03D-04 DE=-1.68D-05 OVMax= 2.75D-04

 Cycle   8  Pass 1  IDiag  1:
 E= -616.893441460600     Delta-E=       -0.000000605086 Rises=F Damp=F
 DIIS: error= 9.08D-06 at cycle   8 NSaved=   8.
 NSaved= 8 IEnMin= 8 EnMin= -616.893441460600     IErMin= 8 ErrMin= 9.08D-06
 ErrMax= 9.08D-06 EMaxC= 1.00D-01 BMatC= 2.21D-08 BMatP= 6.55D-07
 IDIUse=1 WtCom= 1.00D+00 WtEn= 0.00D+00
 Coeff-Com:  0.396D-04-0.357D-03 0.107D-02 0.133D-02 0.237D-01 0.599D-01
 Coeff-Com:  0.214D+00 0.700D+00
 Coeff:      0.396D-04-0.357D-03 0.107D-02 0.133D-02 0.237D-01 0.599D-01
 Coeff:      0.214D+00 0.700D+00
 Gap=     0.239 Goal=   None    Shift=    0.000
 RMSDP=2.05D-06 MaxDP=4.59D-05 DE=-6.05D-07 OVMax= 4.91D-05

 Cycle   9  Pass 1  IDiag  1:
 E= -616.893441481599     Delta-E=       -0.000000021000 Rises=F Damp=F
 DIIS: error= 2.70D-06 at cycle   9 NSaved=   9.
 NSaved= 9 IEnMin= 9 EnMin= -616.893441481599     IErMin= 9 ErrMin= 2.70D-06
 ErrMax= 2.70D-06 EMaxC= 1.00D-01 BMatC= 1.41D-09 BMatP= 2.21D-08
 IDIUse=1 WtCom= 1.00D+00 WtEn= 0.00D+00
 Coeff-Com:  0.474D-04-0.113D-03-0.531D-03-0.732D-03-0.230D-02-0.693D-03
 Coeff-Com:  0.171D-01 0.237D+00 0.750D+00
 Coeff:      0.474D-04-0.113D-03-0.531D-03-0.732D-03-0.230D-02-0.693D-03
 Coeff:      0.171D-01 0.237D+00 0.750D+00
 Gap=     0.239 Goal=   None    Shift=    0.000
 RMSDP=9.25D-07 MaxDP=3.39D-05 DE=-2.10D-08 OVMax= 8.71D-06

 Cycle  10  Pass 1  IDiag  1:
 E= -616.893441482974     Delta-E=       -0.000000001375 Rises=F Damp=F
 DIIS: error= 5.41D-07 at cycle  10 NSaved=  10.
 NSaved=10 IEnMin=10 EnMin= -616.893441482974     IErMin=10 ErrMin= 5.41D-07
 ErrMax= 5.41D-07 EMaxC= 1.00D-01 BMatC= 7.99D-11 BMatP= 1.41D-09
 IDIUse=1 WtCom= 1.00D+00 WtEn= 0.00D+00
 Coeff-Com:  0.149D-04-0.269D-04-0.238D-03-0.320D-03-0.167D-02-0.214D-02
 Coeff-Com: -0.175D-04 0.803D-01 0.318D+00 0.607D+00
 Coeff:      0.149D-04-0.269D-04-0.238D-03-0.320D-03-0.167D-02-0.214D-02
 Coeff:     -0.175D-04 0.803D-01 0.318D+00 0.607D+00
 Gap=     0.239 Goal=   None    Shift=    0.000
 RMSDP=1.33D-07 MaxDP=4.48D-06 DE=-1.37D-09 OVMax= 2.55D-06

 Cycle  11  Pass 1  IDiag  1:
 E= -616.893441483049     Delta-E=       -0.000000000075 Rises=F Damp=F
 DIIS: error= 1.43D-07 at cycle  11 NSaved=  11.
 NSaved=11 IEnMin=11 EnMin= -616.893441483049     IErMin=11 ErrMin= 1.43D-07
 ErrMax= 1.43D-07 EMaxC= 1.00D-01 BMatC= 7.08D-12 BMatP= 7.99D-11
 IDIUse=1 WtCom= 1.00D+00 WtEn= 0.00D+00
 Coeff-Com:  0.194D-05-0.170D-05-0.561D-04-0.732D-04-0.462D-03-0.694D-03
 Coeff-Com: -0.133D-02 0.123D-01 0.617D-01 0.264D+00 0.664D+00
 Coeff:      0.194D-05-0.170D-05-0.561D-04-0.732D-04-0.462D-03-0.694D-03
 Coeff:     -0.133D-02 0.123D-01 0.617D-01 0.264D+00 0.664D+00
 Gap=     0.239 Goal=   None    Shift=    0.000
 RMSDP=3.51D-08 MaxDP=1.42D-06 DE=-7.49D-11 OVMax= 5.52D-07

 Cycle  12  Pass 1  IDiag  1:
 E= -616.893441483059     Delta-E=       -0.000000000010 Rises=F Damp=F
 DIIS: error= 1.89D-08 at cycle  12 NSaved=  12.
 NSaved=12 IEnMin=12 EnMin= -616.893441483059     IErMin=12 ErrMin= 1.89D-08
 ErrMax= 1.89D-08 EMaxC= 1.00D-01 BMatC= 1.18D-13 BMatP= 7.08D-12
 IDIUse=1 WtCom= 1.00D+00 WtEn= 0.00D+00
 Coeff-Com: -0.305D-06 0.880D-06-0.129D-05-0.388D-05-0.295D-04-0.267D-04
 Coeff-Com: -0.310D-03-0.145D-02-0.203D-02 0.295D-01 0.133D+00 0.841D+00
 Coeff:     -0.305D-06 0.880D-06-0.129D-05-0.388D-05-0.295D-04-0.267D-04
 Coeff:     -0.310D-03-0.145D-02-0.203D-02 0.295D-01 0.133D+00 0.841D+00
 Gap=     0.239 Goal=   None    Shift=    0.000
 RMSDP=1.04D-08 MaxDP=4.67D-07 DE=-1.00D-11 OVMax= 1.34D-07

 Cycle  13  Pass 1  IDiag  1:
 E= -616.893441483059     Delta-E=        0.000000000000 Rises=F Damp=F
 DIIS: error= 5.17D-09 at cycle  13 NSaved=  13.
 NSaved=13 IEnMin=13 EnMin= -616.893441483059     IErMin=13 ErrMin= 5.17D-09
 ErrMax= 5.17D-09 EMaxC= 1.00D-01 BMatC= 4.67D-15 BMatP= 1.18D-13
 IDIUse=1 WtCom= 1.00D+00 WtEn= 0.00D+00
 Coeff-Com: -0.150D-06 0.331D-06 0.136D-05 0.958D-06 0.204D-05 0.833D-05
 Coeff-Com: -0.724D-04-0.737D-03-0.216D-02 0.113D-02 0.181D-01 0.229D+00
 Coeff-Com:  0.755D+00
 Coeff:     -0.150D-06 0.331D-06 0.136D-05 0.958D-06 0.204D-05 0.833D-05
 Coeff:     -0.724D-04-0.737D-03-0.216D-02 0.113D-02 0.181D-01 0.229D+00
 Coeff:      0.755D+00
 Gap=     0.239 Goal=   None    Shift=    0.000
 RMSDP=2.19D-09 MaxDP=8.57D-08 DE=-1.14D-13 OVMax= 1.80D-08

 Cycle  14  Pass 1  IDiag  1:
 E= -616.893441483056     Delta-E=        0.000000000003 Rises=F Damp=F
 DIIS: error= 9.55D-10 at cycle  14 NSaved=  14.
 NSaved=14 IEnMin=13 EnMin= -616.893441483059     IErMin=14 ErrMin= 9.55D-10
 ErrMax= 9.55D-10 EMaxC= 1.00D-01 BMatC= 2.33D-16 BMatP= 4.67D-15
 IDIUse=1 WtCom= 1.00D+00 WtEn= 0.00D+00
 Coeff-Com: -0.918D-08 0.186D-07 0.342D-06 0.361D-06 0.142D-05 0.280D-05
 Coeff-Com: -0.285D-05-0.837D-04-0.397D-03-0.145D-02-0.339D-02 0.962D-02
 Coeff-Com:  0.198D+00 0.798D+00
 Coeff:     -0.918D-08 0.186D-07 0.342D-06 0.361D-06 0.142D-05 0.280D-05
 Coeff:     -0.285D-05-0.837D-04-0.397D-03-0.145D-02-0.339D-02 0.962D-02
 Coeff:      0.198D+00 0.798D+00
 Gap=     0.239 Goal=   None    Shift=    0.000
 RMSDP=5.23D-10 MaxDP=1.88D-08 DE= 2.84D-12 OVMax= 5.01D-09

 Cycle  15  Pass 1  IDiag  1:
 E= -616.893441483057     Delta-E=       -0.000000000001 Rises=F Damp=F
 DIIS: error= 1.51D-10 at cycle  15 NSaved=  15.
 NSaved=15 IEnMin=13 EnMin= -616.893441483059     IErMin=15 ErrMin= 1.51D-10
 ErrMax= 1.51D-10 EMaxC= 1.00D-01 BMatC= 3.44D-18 BMatP= 2.33D-16
 IDIUse=1 WtCom= 1.00D+00 WtEn= 0.00D+00
 Coeff-Com:  0.752D-09-0.180D-08 0.379D-07 0.668D-07 0.220D-06 0.352D-06
 Coeff-Com:  0.101D-05 0.199D-05-0.211D-04-0.247D-03-0.102D-02-0.350D-02
 Coeff-Com:  0.146D-01 0.124D+00 0.867D+00
 Coeff:      0.752D-09-0.180D-08 0.379D-07 0.668D-07 0.220D-06 0.352D-06
 Coeff:      0.101D-05 0.199D-05-0.211D-04-0.247D-03-0.102D-02-0.350D-02
 Coeff:      0.146D-01 0.124D+00 0.867D+00
 Gap=     0.239 Goal=   None    Shift=    0.000
 RMSDP=8.65D-11 MaxDP=3.08D-09 DE=-6.82D-13 OVMax= 8.36D-10

 Cycle  16  Pass 1  IDiag  1:
 E= -616.893441483056     Delta-E=        0.000000000000 Rises=F Damp=F
 DIIS: error= 4.79D-11 at cycle  16 NSaved=  16.
 NSaved=16 IEnMin=13 EnMin= -616.893441483059     IErMin=16 ErrMin= 4.79D-11
 ErrMax= 4.79D-11 EMaxC= 1.00D-01 BMatC= 1.87D-19 BMatP= 3.44D-18
 IDIUse=1 WtCom= 1.00D+00 WtEn= 0.00D+00
 Large coefficients: NSaved= 16 BigCof=    0.00 CofMax=   10.00 Det=-2.15D-18
 Inversion failed.  Reducing to 15 matrices.
 Coeff-Com: -0.191D-09 0.330D-08 0.108D-07 0.381D-07 0.731D-07 0.342D-06
 Coeff-Com:  0.171D-05 0.340D-05-0.120D-04-0.126D-03-0.861D-03-0.230D-02
 Coeff-Com:  0.129D-02 0.199D+00 0.803D+00
 Coeff:     -0.191D-09 0.330D-08 0.108D-07 0.381D-07 0.731D-07 0.342D-06
 Coeff:      0.171D-05 0.340D-05-0.120D-04-0.126D-03-0.861D-03-0.230D-02
 Coeff:      0.129D-02 0.199D+00 0.803D+00
 Gap=     0.239 Goal=   None    Shift=    0.000
 RMSDP=2.37D-11 MaxDP=8.29D-10 DE= 4.55D-13 OVMax= 2.01D-10

 Cycle  17  Pass 1  IDiag  1:
 E= -616.893441483057     Delta-E=       -0.000000000001 Rises=F Damp=F
 DIIS: error= 1.11D-11 at cycle  17 NSaved=  16.
 NSaved=16 IEnMin=12 EnMin= -616.893441483059     IErMin=16 ErrMin= 1.11D-11
 ErrMax= 1.11D-11 EMaxC= 1.00D-01 BMatC= 1.07D-20 BMatP= 1.87D-19
 IDIUse=1 WtCom= 1.00D+00 WtEn= 0.00D+00
 Large coefficients: NSaved= 16 BigCof=    0.00 CofMax=   10.00 Det=-1.24D-19
 Inversion failed.  Reducing to 15 matrices.
 Coeff-Com: -0.145D-08-0.111D-08-0.332D-08-0.149D-08 0.450D-07 0.431D-06
 Coeff-Com:  0.237D-05 0.923D-05 0.127D-04-0.965D-04-0.141D-02-0.621D-02
 Coeff-Com:  0.148D-01 0.225D+00 0.768D+00
 Coeff:     -0.145D-08-0.111D-08-0.332D-08-0.149D-08 0.450D-07 0.431D-06
 Coeff:      0.237D-05 0.923D-05 0.127D-04-0.965D-04-0.141D-02-0.621D-02
 Coeff:      0.148D-01 0.225D+00 0.768D+00
 Gap=     0.239 Goal=   None    Shift=    0.000
 RMSDP=1.18D-11 MaxDP=2.86D-10 DE=-6.82D-13 OVMax= 4.15D-11

 Cycle  18  Pass 1  IDiag  1:
 E= -616.893441483056     Delta-E=        0.000000000001 Rises=F Damp=F
 DIIS: error= 3.53D-12 at cycle  18 NSaved=  16.
 NSaved=16 IEnMin=11 EnMin= -616.893441483059     IErMin=16 ErrMin= 3.53D-12
 ErrMax= 3.53D-12 EMaxC= 1.00D-01 BMatC= 4.66D-22 BMatP= 1.07D-20
 IDIUse=1 WtCom= 1.00D+00 WtEn= 0.00D+00
 Large coefficients: NSaved= 16 BigCof=    0.00 CofMax=   10.00 Det=-4.53D-21
 Inversion failed.  Reducing to 15 matrices.
 Coeff-Com: -0.546D-10 0.836D-09 0.421D-09 0.778D-08 0.118D-07 0.107D-06
 Coeff-Com:  0.400D-06 0.118D-05-0.577D-05-0.626D-04-0.627D-03-0.205D-02
 Coeff-Com:  0.130D-01 0.126D+00 0.864D+00
 Coeff:     -0.546D-10 0.836D-09 0.421D-09 0.778D-08 0.118D-07 0.107D-06
 Coeff:      0.400D-06 0.118D-05-0.577D-05-0.626D-04-0.627D-03-0.205D-02
 Coeff:      0.130D-01 0.126D+00 0.864D+00
 Gap=     0.239 Goal=   None    Shift=    0.000
 RMSDP=1.24D-11 MaxDP=4.24D-10 DE= 1.14D-12 OVMax= 8.52D-12

 Cycle  19  Pass 1  IDiag  1:
 E= -616.893441483059     Delta-E=       -0.000000000003 Rises=F Damp=F
 DIIS: error= 3.03D-12 at cycle  19 NSaved=  16.
 NSaved=16 IEnMin=16 EnMin= -616.893441483059     IErMin=16 ErrMin= 3.03D-12
 ErrMax= 3.03D-12 EMaxC= 1.00D-01 BMatC= 2.57D-22 BMatP= 4.66D-22
 IDIUse=1 WtCom= 1.00D+00 WtEn= 0.00D+00
 Large coefficients: NSaved= 16 BigCof=    0.00 CofMax=   10.00 Det=-7.38D-22
 Inversion failed.  Reducing to 15 matrices.
 Coeff-Com:  0.336D-09-0.341D-09 0.186D-08 0.192D-08 0.505D-07 0.286D-06
 Coeff-Com:  0.956D-06-0.301D-05-0.341D-04-0.314D-03-0.117D-02 0.323D-02
 Coeff-Com:  0.471D-01 0.414D+00 0.537D+00
 Coeff:      0.336D-09-0.341D-09 0.186D-08 0.192D-08 0.505D-07 0.286D-06
 Coeff:      0.956D-06-0.301D-05-0.341D-04-0.314D-03-0.117D-02 0.323D-02
 Coeff:      0.471D-01 0.414D+00 0.537D+00
 Gap=     0.239 Goal=   None    Shift=    0.000
 RMSDP=1.29D-11 MaxDP=9.01D-10 DE=-3.18D-12 OVMax= 4.21D-12

 Cycle  20  Pass 1  IDiag  1:
 E= -616.893441483059     Delta-E=        0.000000000000 Rises=F Damp=F
 DIIS: error= 1.79D-12 at cycle  20 NSaved=  16.
 NSaved=16 IEnMin=16 EnMin= -616.893441483059     IErMin=16 ErrMin= 1.79D-12
 ErrMax= 1.79D-12 EMaxC= 1.00D-01 BMatC= 1.14D-22 BMatP= 2.57D-22
 IDIUse=1 WtCom= 1.00D+00 WtEn= 0.00D+00
 Large coefficients: NSaved= 16 BigCof=    0.00 CofMax=   10.00 Det=-3.04D-22
 Inversion failed.  Reducing to 15 matrices.
 Coeff-Com: -0.714D-09-0.737D-09-0.381D-08 0.220D-07 0.148D-06 0.620D-06
 Coeff-Com: -0.530D-06-0.471D-05-0.127D-03-0.874D-03-0.370D-03 0.213D-01
 Coeff-Com:  0.265D+00 0.202D+00 0.513D+00
 Coeff:     -0.714D-09-0.737D-09-0.381D-08 0.220D-07 0.148D-06 0.620D-06
 Coeff:     -0.530D-06-0.471D-05-0.127D-03-0.874D-03-0.370D-03 0.213D-01
 Coeff:      0.265D+00 0.202D+00 0.513D+00
 Gap=     0.239 Goal=   None    Shift=    0.000
 RMSDP=5.26D-12 MaxDP=2.53D-10 DE=-2.27D-13 OVMax= 2.34D-12

 SCF Done:  E(RB3LYP) =  -616.893441483     A.U. after   20 cycles
             Convg  =    0.5264D-11             -V/T =  2.0033
 KE= 6.148608746430D+02 PE=-1.872925160892D+03 EE= 4.330218406297D+02
 Leave Link  502 at Wed Jul 10 17:23:45 2013, MaxMem=  131072000 cpu:     267.3
 (Enter /cerebro/home/software/apps/g09/l801.exe)
 Range of M.O.s used for correlation:     1   167
 NBasis=   167 NAE=    24 NBE=    24 NFC=     0 NFV=     0
 NROrb=    167 NOA=    24 NOB=    24 NVA=   143 NVB=   143

 **** Warning!!: The largest alpha MO coefficient is  0.63368319D+02

 Leave Link  801 at Wed Jul 10 17:23:45 2013, MaxMem=  131072000 cpu:       0.0
 (Enter /cerebro/home/software/apps/g09/l1002.exe)
 Minotr:  Closed shell wavefunction.
          Direct CPHF calculation.
          Differentiating once with respect to magnetic field using GIAOs.
          Electric field/nuclear overlap derivatives assumed to be zero.
          Requested convergence is 1.0D-11 RMS, and 1.0D-10 maximum.
          NewPWx=F KeepS1=T KeepF1=T KeepIn=T MapXYZ=F SortEE=F KeepMc=T.
          MDV=     131071900 using IRadAn=       4.
 Generate precomputed XC quadrature information.
          Solving linear equations separately, MaxMat=       0.
          Doing perturbations at frequencies    0.071980    0.077357    0.104503    0.128347
 FoFCou: FMM=F IPFlag=           0 FMFlag=           0 FMFlg1=           0
         NFxFlg=           0 DoJE=F BraDBF=F KetDBF=T FulRan=T
         Omega=  0.000000  0.000000  1.000000  0.000000  0.000000 ICntrl=    6100 IOpCl=  0
         NMat0=    1 NMatS0=    1 NMatT0=    0 NMatD0=    1 NMtDS0=    0 NMtDT0=    0
         I1Cent=           7 NGrid=          12.
 Symmetry not used in FoFCou.
 Integrals replicated using symmetry in FoFDir.
 MinBra= 0 MaxBra= 2 Meth= 1.
 IRaf=       0 NMat=  24 IRICut=      30 DoRegI=T DoRafI=T ISym2E= 2 JSym2E=2.
 CalDSu exits because no D1Ps are significant.
          There are    12 degrees of freedom in the 1st order CPHF.  IDoFFX=0.
 LinEq1:  Iter=  0 NonCon=    12 RMS=5.86D-02 Max=1.77D+00
 AX will form    12 AO Fock derivatives at one time.
 LinEq1:  Iter=  1 NonCon=    12 RMS=1.67D-02 Max=7.86D-01
 LinEq1:  Iter=  2 NonCon=    12 RMS=1.36D-02 Max=8.04D-01
 LinEq1:  Iter=  3 NonCon=    12 RMS=7.57D-03 Max=2.17D-01
 LinEq1:  Iter=  4 NonCon=    12 RMS=5.41D-03 Max=1.13D-01
 LinEq1:  Iter=  5 NonCon=    12 RMS=2.25D-03 Max=7.06D-02
 LinEq1:  Iter=  6 NonCon=    12 RMS=1.25D-03 Max=2.22D-02
 LinEq1:  Iter=  7 NonCon=    12 RMS=4.26D-04 Max=6.23D-03
 LinEq1:  Iter=  8 NonCon=    12 RMS=1.86D-04 Max=3.23D-03
 LinEq1:  Iter=  9 NonCon=    12 RMS=7.34D-05 Max=1.06D-03
 LinEq1:  Iter= 10 NonCon=    12 RMS=2.60D-05 Max=4.21D-04
 LinEq1:  Iter= 11 NonCon=    12 RMS=1.00D-05 Max=1.86D-04
 LinEq1:  Iter= 12 NonCon=    12 RMS=4.81D-06 Max=8.52D-05
 LinEq1:  Iter= 13 NonCon=    12 RMS=1.88D-06 Max=3.36D-05
 LinEq1:  Iter= 14 NonCon=    12 RMS=5.64D-07 Max=1.02D-05
 LinEq1:  Iter= 15 NonCon=    12 RMS=1.41D-07 Max=3.11D-06
 LinEq1:  Iter= 16 NonCon=    12 RMS=3.91D-08 Max=7.15D-07
 LinEq1:  Iter= 17 NonCon=    12 RMS=1.18D-08 Max=2.42D-07
 LinEq1:  Iter= 18 NonCon=    12 RMS=2.85D-09 Max=9.35D-08
 LinEq1:  Iter= 19 NonCon=    12 RMS=7.74D-10 Max=1.30D-08
 LinEq1:  Iter= 20 NonCon=    12 RMS=2.80D-10 Max=7.42D-09
 LinEq1:  Iter= 21 NonCon=    12 RMS=8.83D-11 Max=1.86D-09
 LinEq1:  Iter= 22 NonCon=     4 RMS=2.16D-11 Max=3.42D-10
 LinEq1:  Iter= 23 NonCon=     1 RMS=6.10D-12 Max=1.19D-10
 LinEq1:  Iter= 24 NonCon=     1 RMS=6.47D-12 Max=1.40D-10
 LinEq1:  Iter= 25 NonCon=     1 RMS=7.10D-12 Max=1.08D-10
 LinEq1:  Iter= 26 NonCon=     0 RMS=5.56D-12 Max=8.38D-11
 Linear equations converged to 1.000D-11 1.000D-10 after    26 iterations.
 FullF1:  Do perturbations    1 to    12.
 Dipole-magnetic dipole polarizability for W=    0.071980:
                 1             2             3 
      1   0.485502D+01 -0.139044D+01 -0.763470D+01
      2  -0.843158D+01 -0.461241D+01 -0.197222D+02
      3   0.273338D+02  0.936508D+01  0.119771D+01
 w=    0.071980 a.u., Optical Rotation Beta=     -0.4801 au.
 Molar Mass =     90.5523 grams/mole, [Alpha] ( 6330.0 A) =     -177.62 deg.
 Dipole-magnetic dipole polarizability for W=    0.077357:
                 1             2             3 
      1   0.493276D+01 -0.138209D+01 -0.762197D+01
      2  -0.856278D+01 -0.466338D+01 -0.197939D+02
      3   0.276113D+02  0.945614D+01  0.122822D+01
 w=    0.077357 a.u., Optical Rotation Beta=     -0.4992 au.
 Molar Mass =     90.5523 grams/mole, [Alpha] ( 5890.0 A) =     -213.30 deg.
 Dipole-magnetic dipole polarizability for W=    0.104503:
                 1             2             3 
      1   0.547953D+01 -0.131302D+01 -0.752566D+01
      2  -0.945246D+01 -0.499908D+01 -0.202555D+02
      3   0.295738D+02  0.100965D+02  0.144556D+01
 w=    0.104503 a.u., Optical Rotation Beta=     -0.6420 au.
 Molar Mass =     90.5523 grams/mole, [Alpha] ( 4360.0 A) =     -500.63 deg.
 Dipole-magnetic dipole polarizability for W=    0.128347:
                 1             2             3 
      1   0.628759D+01 -0.118419D+01 -0.737120D+01
      2  -0.106585D+02 -0.542824D+01 -0.208247D+02
      3   0.325077D+02  0.110408D+02  0.177289D+01
 w=    0.128347 a.u., Optical Rotation Beta=     -0.8774 au.
 Molar Mass =     90.5523 grams/mole, [Alpha] ( 3550.0 A) =    -1032.04 deg.
 End of Minotr Frequency-dependent properties on file   721 Mask=       2 NFrqRd=     4 NDeriv=     1 LenFil=      42:
 Frequencies=    0.071980    0.077357    0.104503    0.128347
 Property number 2 -- FD Optical Rotation Tensor frequency  1    0.071980:
                 1             2             3 
      1   0.485502D+01 -0.139044D+01 -0.763470D+01
      2  -0.843158D+01 -0.461241D+01 -0.197222D+02
      3   0.273338D+02  0.936508D+01  0.119771D+01
 Property number 2 -- FD Optical Rotation Tensor frequency  2    0.077357:
                 1             2             3 
      1   0.493276D+01 -0.138209D+01 -0.762197D+01
      2  -0.856278D+01 -0.466338D+01 -0.197939D+02
      3   0.276113D+02  0.945614D+01  0.122822D+01
 Property number 2 -- FD Optical Rotation Tensor frequency  3    0.104503:
                 1             2             3 
      1   0.547953D+01 -0.131302D+01 -0.752566D+01
      2  -0.945246D+01 -0.499908D+01 -0.202555D+02
      3   0.295738D+02  0.100965D+02  0.144556D+01
 Property number 2 -- FD Optical Rotation Tensor frequency  4    0.128347:
                 1             2             3 
      1   0.628759D+01 -0.118419D+01 -0.737120D+01
      2  -0.106585D+02 -0.542824D+01 -0.208247D+02
      3   0.325077D+02  0.110408D+02  0.177289D+01
 End of Minotr Frequency-dependent properties file   722 does not exist.
 Leave Link 1002 at Wed Jul 10 17:48:42 2013, MaxMem=  131072000 cpu:    1497.4
 (Enter /cerebro/home/software/apps/g09/l601.exe)
 Copying SCF densities to generalized density rwf, IOpCl= 0 IROHF=0.

 **********************************************************************

            Population analysis using the SCF density.

 **********************************************************************

 Orbital symmetries:
       Occupied  (A) (A) (A) (A) (A) (A) (A) (A) (A) (A) (A) (A)
                 (A) (A) (A) (A) (A) (A) (A) (A) (A) (A) (A) (A)
       Virtual   (A) (A) (A) (A) (A) (A) (A) (A) (A) (A) (A) (A)
                 (A) (A) (A) (A) (A) (A) (A) (A) (A) (A) (A) (A)
                 (A) (A) (A) (A) (A) (A) (A) (A) (A) (A) (A) (A)
                 (A) (A) (A) (A) (A) (A) (A) (A) (A) (A) (A) (A)
                 (A) (A) (A) (A) (A) (A) (A) (A) (A) (A) (A) (A)
                 (A) (A) (A) (A) (A) (A) (A) (A) (A) (A) (A) (A)
                 (A) (A) (A) (A) (A) (A) (A) (A) (A) (A) (A) (A)
                 (A) (A) (A) (A) (A) (A) (A) (A) (A) (A) (A) (A)
                 (A) (A) (A) (A) (A) (A) (A) (A) (A) (A) (A) (A)
                 (A) (A) (A) (A) (A) (A) (A) (A) (A) (A) (A) (A)
                 (A) (A) (A) (A) (A) (A) (A) (A) (A) (A) (A) (A)
                 (A) (A) (A) (A) (A) (A) (A) (A) (A) (A) (A)
 The electronic state is 1-A.
 Alpha  occ. eigenvalues -- -101.53278 -10.25400 -10.19810 -10.18820 -10.18543
 Alpha  occ. eigenvalues --   -9.44636  -7.21080  -7.20133  -7.20120  -0.85577
 Alpha  occ. eigenvalues --   -0.78415  -0.74395  -0.64316  -0.57554  -0.48254
 Alpha  occ. eigenvalues --   -0.47593  -0.44348  -0.41556  -0.40508  -0.37100
 Alpha  occ. eigenvalues --   -0.36572  -0.30511  -0.29749  -0.28136
 Alpha virt. eigenvalues --   -0.04217  -0.00821   0.00430   0.00782   0.01668
 Alpha virt. eigenvalues --    0.02726   0.03800   0.03981   0.06310   0.06430
 Alpha virt. eigenvalues --    0.07106   0.08372   0.08677   0.09679   0.10993
 Alpha virt. eigenvalues --    0.11651   0.11896   0.12138   0.12902   0.12930
 Alpha virt. eigenvalues --    0.13341   0.13994   0.14896   0.15549   0.15947
 Alpha virt. eigenvalues --    0.16255   0.17090   0.18575   0.18967   0.21000
 Alpha virt. eigenvalues --    0.21810   0.22505   0.24937   0.26032   0.26531
 Alpha virt. eigenvalues --    0.28749   0.33838   0.35564   0.38822   0.42196
 Alpha virt. eigenvalues --    0.42958   0.44605   0.46088   0.47909   0.49016
 Alpha virt. eigenvalues --    0.49710   0.52226   0.52780   0.56072   0.58568
 Alpha virt. eigenvalues --    0.60178   0.61886   0.63370   0.64843   0.65283
 Alpha virt. eigenvalues --    0.65907   0.68986   0.70712   0.72915   0.74015
 Alpha virt. eigenvalues --    0.79374   0.81576   0.82795   0.86380   0.88462
 Alpha virt. eigenvalues --    0.89860   0.94141   0.95269   1.01218   1.01942
 Alpha virt. eigenvalues --    1.05962   1.08266   1.11619   1.16400   1.18821
 Alpha virt. eigenvalues --    1.28425   1.38622   1.42835   1.44544   1.46184
 Alpha virt. eigenvalues --    1.49150   1.52500   1.55829   1.57943   1.59194
 Alpha virt. eigenvalues --    1.61921   1.65089   1.67585   1.69364   1.72417
 Alpha virt. eigenvalues --    1.77501   1.78294   1.85770   1.87670   1.93189
 Alpha virt. eigenvalues --    1.97346   2.00432   2.06605   2.11958   2.16159
 Alpha virt. eigenvalues --    2.18746   2.19948   2.23976   2.29308   2.31019
 Alpha virt. eigenvalues --    2.34444   2.36423   2.44968   2.45793   2.48980
 Alpha virt. eigenvalues --    2.51976   2.55141   2.57309   2.58101   2.59597
 Alpha virt. eigenvalues --    2.62917   2.71999   2.72603   2.75057   2.76591
 Alpha virt. eigenvalues --    2.84736   2.85515   2.91875   3.05099   3.07567
 Alpha virt. eigenvalues --    3.13849   3.37262   3.49630   3.70614   3.78070
 Alpha virt. eigenvalues --    3.79130   3.93151   4.08541   4.27469   9.74318
 Alpha virt. eigenvalues --   23.71436  23.76357  23.93434  24.22602  25.92050
 Alpha virt. eigenvalues --   25.96377  26.41134 215.73118
          Condensed to atoms (all electrons):
              1          2          3          4          5          6
     1  C    5.364300   0.116631   0.036953   0.082720  -0.003586   0.384446
     2  C    0.116631   5.380607   0.032649  -0.087368  -0.015219  -0.045441
     3  C    0.036953   0.032649   5.250544   0.444295  -0.038908   0.013757
     4  C    0.082720  -0.087368   0.444295   5.374540   0.376410  -0.009475
     5  H   -0.003586  -0.015219  -0.038908   0.376410   0.563039   0.000765
     6  H    0.384446  -0.045441   0.013757  -0.009475   0.000765   0.544433
     7  H    0.002487   0.017246  -0.012461   0.390810  -0.040023   0.000214
     8  H   -0.015313  -0.015886   0.326375  -0.037191   0.017662  -0.002011
     9  H   -0.047784   0.485989  -0.132282   0.007817   0.009896  -0.005295
    10  H    0.397880  -0.022256  -0.036376  -0.000412   0.001966  -0.019141
    11  H    0.365843  -0.038677   0.013158   0.004603  -0.001214  -0.029520
    12  Cl  -0.028814   0.043598   0.009173   0.061251  -0.001625   0.009304
              7          8          9         10         11         12
     1  C    0.002487  -0.015313  -0.047784   0.397880   0.365843  -0.028814
     2  C    0.017246  -0.015886   0.485989  -0.022256  -0.038677   0.043598
     3  C   -0.012461   0.326375  -0.132282  -0.036376   0.013158   0.009173
     4  C    0.390810  -0.037191   0.007817  -0.000412   0.004603   0.061251
     5  H   -0.040023   0.017662   0.009896   0.001966  -0.001214  -0.001625
     6  H    0.000214  -0.002011  -0.005295  -0.019141  -0.029520   0.009304
     7  H    0.539841  -0.023224  -0.002449  -0.000744   0.000299  -0.003492
     8  H   -0.023224   0.560075   0.006210   0.004487  -0.002523   0.018902
     9  H   -0.002449   0.006210   0.516673   0.006230  -0.011383  -0.046649
    10  H   -0.000744   0.004487   0.006230   0.537328  -0.034461   0.007561
    11  H    0.000299  -0.002523  -0.011383  -0.034461   0.581050   0.015713
    12  Cl  -0.003492   0.018902  -0.046649   0.007561   0.015713  16.983361
 Mulliken atomic charges:
              1
     1  C   -0.655765
     2  C    0.148127
     3  C    0.093121
     4  C   -0.608002
     5  H    0.130836
     6  H    0.157963
     7  H    0.131496
     8  H    0.162435
     9  H    0.213027
    10  H    0.157935
    11  H    0.137111
    12  Cl  -0.068285
 Sum of Mulliken atomic charges =   0.00000
 Mulliken charges with hydrogens summed into heavy atoms:
              1
     1  C   -0.202755
     2  C    0.361154
     3  C    0.255557
     4  C   -0.345670
    12  Cl  -0.068285
 Sum of Mulliken charges with hydrogens summed into heavy atoms =   0.00000
 Electronic spatial extent (au):  <R**2>=            650.8244
 Charge=              0.0000 electrons
 Dipole moment (field-independent basis, Debye):
    X=             -1.8426    Y=              1.7196    Z=             -0.3372  Tot=              2.5428
 Quadrupole moment (field-independent basis, Debye-Ang):
   XX=            -39.3790   YY=            -39.8343   ZZ=            -37.2650
   XY=              2.7082   XZ=              0.0781   YZ=             -0.3687
 Traceless Quadrupole moment (field-independent basis, Debye-Ang):
   XX=             -0.5529   YY=             -1.0082   ZZ=              1.5611
   XY=              2.7082   XZ=              0.0781   YZ=             -0.3687
 Octapole moment (field-independent basis, Debye-Ang**2):
  XXX=             -2.8283  YYY=              2.1960  ZZZ=             -0.5384  XYY=              4.4042
  XXY=             -5.0856  XXZ=             -0.0323  XZZ=             -1.0732  YZZ=             -0.2183
  YYZ=             -0.0558  XYZ=              0.0725
 Hexadecapole moment (field-independent basis, Debye-Ang**3):
 XXXX=           -507.0643 YYYY=           -289.3808 ZZZZ=            -80.3805 XXXY=             11.6816
 XXXZ=             -1.9877 YYYX=             -7.9843 YYYZ=             -2.0151 ZZZX=              1.2555
 ZZZY=              0.8044 XXYY=           -134.1446 XXZZ=            -98.1712 YYZZ=            -63.3100
 XXYZ=             -3.7597 YYXZ=              0.4868 ZZXY=              2.1617
 N-N= 2.081490041358D+02 E-N=-1.872925160892D+03  KE= 6.148608746430D+02
 No NMR shielding tensors so no spin-rotation constants.
 Leave Link  601 at Wed Jul 10 17:48:43 2013, MaxMem=  131072000 cpu:       0.3
 (Enter /cerebro/home/software/apps/g09/l9999.exe)
 AllDun Frequency-dependent properties on file 20721 Mask=       2 NFrqRd=     4 NDeriv=     1 LenFil=      42:
 Frequencies=    0.071980    0.077357    0.104503    0.128347
 Property number 2 -- FD Optical Rotation Tensor frequency  1    0.071980:
                 1             2             3 
      1   0.490289D+01 -0.140795D+01 -0.752636D+01
      2  -0.815249D+01 -0.474715D+01 -0.197088D+02
      3   0.273580D+02  0.954937D+01  0.128459D+01
 Property number 2 -- FD Optical Rotation Tensor frequency  2    0.077357:
                 1             2             3 
      1   0.498123D+01 -0.139886D+01 -0.751335D+01
      2  -0.828070D+01 -0.479854D+01 -0.197797D+02
      3   0.276361D+02  0.964248D+01  0.131491D+01
 Property number 2 -- FD Optical Rotation Tensor frequency  3    0.104503:
                 1             2             3 
      1   0.553200D+01 -0.132461D+01 -0.741541D+01
      2  -0.914933D+01 -0.513659D+01 -0.202361D+02
      3   0.296029D+02  0.102972D+02  0.153061D+01
 Property number 2 -- FD Optical Rotation Tensor frequency  4    0.128347:
                 1             2             3 
      1   0.634530D+01 -0.118837D+01 -0.725933D+01
      2  -0.103243D+02 -0.556761D+01 -0.207980D+02
      3   0.325423D+02  0.112623D+02  0.185455D+01
 1\1\GINC-COMPUTE-0-117\SP\RB3LYP\6-311++G(d,p)\C4H7Cl1\CRAWDAD\10-Jul-
 2013\0\\#P B3LYP/6-311++G** scf(conver=11) int=ultrafine polar=optrot 
 cphf(rdfreq,conver=11)\\(R)-3-chloro-1-butene tau=120\\0,1\C,0,0.48160
 029,1.80308601,0.03533118\C,0,0.00088822,0.38528154,-0.30457754\C,0,-1
 .23727324,-0.0991291,0.40768487\C,0,-2.37688007,-0.5165377,-0.15340791
 \H,0,-2.53288663,-0.53870499,-1.22983118\H,0,1.37289362,2.04794334,-0.
 54637803\H,0,-3.20168252,-0.85432788,0.4687681\H,0,-1.16070396,-0.1153
 7186,1.49417891\H,0,-0.12925841,0.29508179,-1.38268775\H,0,0.71190779,
 1.92139373,1.09716334\H,0,-0.30881218,2.51303574,-0.23009635\Cl,0,1.41
 134717,-0.86169259,0.02398744\\Version=EM64L-G09RevA.02\State=1-A\HF=-
 616.8934415\RMSD=5.264e-12\Dipole=-0.7282438,0.671845,-0.1383697\Quadr
 upole=-0.4307905,-0.7343746,1.1651651,2.0155043,0.0422206,-0.2576924\P
 G=C01 [X(C4H7Cl1)]\\@


 I KNOW YOU BELIEVE YOU UNDERSTAND WHAT YOU THINK I SAID,
 BUT I AM NOT SURE YOU REALIZE THAT WHAT YOU HEARD IS NOT WHAT I MEANT.
 Job cpu time:  0 days  0 hours 29 minutes 34.0 seconds.
 File lengths (MBytes):  RWF=    123 Int=      0 D2E=      0 Chk=      2 Scr=      1
 Normal termination of Gaussian 09 at Wed Jul 10 17:48:43 2013.
