(R)-3-chloro-1-butene tau=120                                           
SP        RB3LYP                                                      6-311++G(d,p)       
Number of atoms                            I               12
Info1-9                                    I   N=           9
          26          26           0           0           0         110
           1          18        -502
Full Title                                 C   N=           3
(R)-3-chloro-1-butene tau=120       
Route                                      C   N=           7
#P B3LYP/6-311++G** scf(conver=11) int=ultrafine polar=optro
t cphf(rdfreq,conver=11)
Charge                                     I                0
Multiplicity                               I                1
Number of electrons                        I               48
Number of alpha electrons                  I               24
Number of beta electrons                   I               24
Number of basis functions                  I              167
Number of independent functions            I              167
Number of point charges in /Mol/           I                0
Number of translation vectors              I                0
Atomic numbers                             I   N=          12
           6           6           6           6           1           1
           1           1           1           1           1          17
Nuclear charges                            R   N=          12
  6.00000000E+00  6.00000000E+00  6.00000000E+00  6.00000000E+00  1.00000000E+00
  1.00000000E+00  1.00000000E+00  1.00000000E+00  1.00000000E+00  1.00000000E+00
  1.00000000E+00  1.70000000E+01
Current cartesian coordinates              R   N=          36
  9.28543873E-01  3.39991522E+00  9.61716238E-02  7.05243175E-03  7.30695365E-01
 -5.68940685E-01 -2.33724380E+00 -1.84664009E-01  7.69199537E-01 -4.49457903E+00
 -9.53848463E-01 -2.97788043E-01 -4.78950387E+00 -9.76983047E-01 -2.33221629E+00
  2.61513572E+00  3.86371562E+00 -9.99120643E-01 -6.05638576E+00 -1.59452390E+00
  8.72478223E-01 -2.19278799E+00 -2.33537490E-01  2.82204028E+00 -2.39634003E-01
  5.78792161E-01 -2.60765070E+00  1.36476597E+00  3.60426742E+00  2.10457386E+00
 -5.58512625E-01  4.75304155E+00 -3.93979675E-01  2.66084010E+00 -1.64396241E+00
  3.18835497E-02
Number of symbols in /Mol/                 I                0
Force Field                                I                0
Atom Types                                 C   N=          12
                                                            
                                                            
                        
Int Atom Types                             I   N=          12
           0           0           0           0           0           0
           0           0           0           0           0           0
MM charges                                 R   N=          12
  0.00000000E+00  0.00000000E+00  0.00000000E+00  0.00000000E+00  0.00000000E+00
  0.00000000E+00  0.00000000E+00  0.00000000E+00  0.00000000E+00  0.00000000E+00
  0.00000000E+00  0.00000000E+00
Integer atomic weights                     I   N=          12
          12          12          12          12           1           1
           1           1           1           1           1          35
Real atomic weights                        R   N=          12
  1.20000000E+01  1.20000000E+01  1.20000000E+01  1.20000000E+01  1.00782504E+00
  1.00782504E+00  1.00782504E+00  1.00782504E+00  1.00782504E+00  1.00782504E+00
  1.00782504E+00  3.49688527E+01
Atom fragment info                         I   N=          12
           0           0           0           0           0           0
           0           0           0           0           0           0
Atom residue num                           I   N=          12
           0           0           0           0           0           0
           0           0           0           0           0           0
Nuclear spins                              I   N=          12
           0           0           0           0           1           1
           1           1           1           1           1           3
Nuclear ZEff                               R   N=          12
 -3.60000000E+00 -3.60000000E+00 -3.60000000E+00 -3.60000000E+00 -1.00000000E+00
 -1.00000000E+00 -1.00000000E+00 -1.00000000E+00 -1.00000000E+00 -1.00000000E+00
 -1.00000000E+00 -1.42400000E+01
Nuclear ZNuc                               R   N=          12
  6.00000000E+00  6.00000000E+00  6.00000000E+00  6.00000000E+00  1.00000000E+00
  1.00000000E+00  1.00000000E+00  1.00000000E+00  1.00000000E+00  1.00000000E+00
  1.00000000E+00  1.70000000E+01
Nuclear QMom                               R   N=          12
  0.00000000E+00  0.00000000E+00  0.00000000E+00  0.00000000E+00  0.00000000E+00
  0.00000000E+00  0.00000000E+00  0.00000000E+00  0.00000000E+00  0.00000000E+00
  0.00000000E+00 -8.16500000E+00
Nuclear GFac                               R   N=          12
  0.00000000E+00  0.00000000E+00  0.00000000E+00  0.00000000E+00  2.79284600E+00
  2.79284600E+00  2.79284600E+00  2.79284600E+00  2.79284600E+00  2.79284600E+00
  2.79284600E+00  8.21874000E-01
MicOpt                                     I   N=          12
          -1          -1          -1          -1          -1          -1
          -1          -1          -1          -1          -1          -1
Number of residues                         I                0
Number of secondary structures             I                0
SymInf integers                            I   N=          26
           1           1           1           1           1           0
           0           0           0           0           0           0
           0           0           0           0           0           0
           0           0           0           0           0           0
           0           0
RotTr to input orientation                 R   N=          12
  9.99988018E-01  4.89516769E-03 -4.24580633E-05 -4.89535175E-03  9.99951808E-01
 -8.50986829E-03  7.98784929E-07  8.50997417E-03  9.99963790E-01 -1.79638941E-03
  2.22359114E-03 -4.29632386E-04
Number of contracted shells                I               72
Number of primitive shells                 I              126
Pure/Cartesian d shells                    I                0
Pure/Cartesian f shells                    I                0
Highest angular momentum                   I                2
Largest degree of contraction              I                6
Shell types                                I   N=          72
           0          -1          -1          -1          -1          -2
           0          -1          -1          -1          -1          -2
           0          -1          -1          -1          -1          -2
           0          -1          -1          -1          -1          -2
           0           0           0           0           1           0
           0           0           0           1           0           0
           0           0           1           0           0           0
           0           1           0           0           0           0
           1           0           0           0           0           1
           0           0           0           0           1           0
           0           0           0           0           0          -1
           1           1           1           1           1          -2
Number of primitives per shell             I   N=          72
           6           3           1           1           1           1
           6           3           1           1           1           1
           6           3           1           1           1           1
           6           3           1           1           1           1
           3           1           1           1           1           3
           1           1           1           1           3           1
           1           1           1           3           1           1
           1           1           3           1           1           1
           1           3           1           1           1           1
           3           1           1           1           1           6
           3           1           1           1           1           1
           5           2           1           1           1           1
Shell to atom map                          I   N=          72
           1           1           1           1           1           1
           2           2           2           2           2           2
           3           3           3           3           3           3
           4           4           4           4           4           4
           5           5           5           5           5           6
           6           6           6           6           7           7
           7           7           7           8           8           8
           8           8           9           9           9           9
           9          10          10          10          10          10
          11          11          11          11          11          12
          12          12          12          12          12          12
          12          12          12          12          12          12
Primitive exponents                        R   N=         126
  4.56324000E+03  6.82024000E+02  1.54973000E+02  4.44553000E+01  1.30290000E+01
  1.82773000E+00  2.09642000E+01  4.80331000E+00  1.45933000E+00  4.83456000E-01
  1.45585000E-01  4.38000000E-02  6.26000000E-01  4.56324000E+03  6.82024000E+02
  1.54973000E+02  4.44553000E+01  1.30290000E+01  1.82773000E+00  2.09642000E+01
  4.80331000E+00  1.45933000E+00  4.83456000E-01  1.45585000E-01  4.38000000E-02
  6.26000000E-01  4.56324000E+03  6.82024000E+02  1.54973000E+02  4.44553000E+01
  1.30290000E+01  1.82773000E+00  2.09642000E+01  4.80331000E+00  1.45933000E+00
  4.83456000E-01  1.45585000E-01  4.38000000E-02  6.26000000E-01  4.56324000E+03
  6.82024000E+02  1.54973000E+02  4.44553000E+01  1.30290000E+01  1.82773000E+00
  2.09642000E+01  4.80331000E+00  1.45933000E+00  4.83456000E-01  1.45585000E-01
  4.38000000E-02  6.26000000E-01  3.38650000E+01  5.09479000E+00  1.15879000E+00
  3.25840000E-01  1.02741000E-01  3.60000000E-02  7.50000000E-01  3.38650000E+01
  5.09479000E+00  1.15879000E+00  3.25840000E-01  1.02741000E-01  3.60000000E-02
  7.50000000E-01  3.38650000E+01  5.09479000E+00  1.15879000E+00  3.25840000E-01
  1.02741000E-01  3.60000000E-02  7.50000000E-01  3.38650000E+01  5.09479000E+00
  1.15879000E+00  3.25840000E-01  1.02741000E-01  3.60000000E-02  7.50000000E-01
  3.38650000E+01  5.09479000E+00  1.15879000E+00  3.25840000E-01  1.02741000E-01
  3.60000000E-02  7.50000000E-01  3.38650000E+01  5.09479000E+00  1.15879000E+00
  3.25840000E-01  1.02741000E-01  3.60000000E-02  7.50000000E-01  3.38650000E+01
  5.09479000E+00  1.15879000E+00  3.25840000E-01  1.02741000E-01  3.60000000E-02
  7.50000000E-01  1.05819000E+05  1.58720000E+04  3.61965000E+03  1.03080000E+03
  3.39908000E+02  1.24538000E+02  1.24538000E+02  4.95135000E+01  2.08056000E+01
  6.58346000E+00  2.56468000E+00  5.59763000E-01  1.83273000E-01  4.83000000E-02
  5.89776000E+02  1.39849000E+02  4.51413000E+01  1.68733000E+01  2.77152000E+00
  6.74110000E+00  2.77152000E+00  1.02387000E+00  3.81368000E-01  1.09437000E-01
  7.50000000E-01
Contraction coefficients                   R   N=         126
  1.96665025E-03  1.52306019E-02  7.61269097E-02  2.60801033E-01  6.16462078E-01
  2.21006028E-01  1.14660081E-01  9.19999648E-01 -3.03068213E-03  1.00000000E+00
  1.00000000E+00  1.00000000E+00  1.00000000E+00  1.96665025E-03  1.52306019E-02
  7.61269097E-02  2.60801033E-01  6.16462078E-01  2.21006028E-01  1.14660081E-01
  9.19999648E-01 -3.03068213E-03  1.00000000E+00  1.00000000E+00  1.00000000E+00
  1.00000000E+00  1.96665025E-03  1.52306019E-02  7.61269097E-02  2.60801033E-01
  6.16462078E-01  2.21006028E-01  1.14660081E-01  9.19999648E-01 -3.03068213E-03
  1.00000000E+00  1.00000000E+00  1.00000000E+00  1.00000000E+00  1.96665025E-03
  1.52306019E-02  7.61269097E-02  2.60801033E-01  6.16462078E-01  2.21006028E-01
  1.14660081E-01  9.19999648E-01 -3.03068213E-03  1.00000000E+00  1.00000000E+00
  1.00000000E+00  1.00000000E+00  2.54938145E-02  1.90373109E-01  8.52161486E-01
  1.00000000E+00  1.00000000E+00  1.00000000E+00  1.00000000E+00  2.54938145E-02
  1.90373109E-01  8.52161486E-01  1.00000000E+00  1.00000000E+00  1.00000000E+00
  1.00000000E+00  2.54938145E-02  1.90373109E-01  8.52161486E-01  1.00000000E+00
  1.00000000E+00  1.00000000E+00  1.00000000E+00  2.54938145E-02  1.90373109E-01
  8.52161486E-01  1.00000000E+00  1.00000000E+00  1.00000000E+00  1.00000000E+00
  2.54938145E-02  1.90373109E-01  8.52161486E-01  1.00000000E+00  1.00000000E+00
  1.00000000E+00  1.00000000E+00  2.54938145E-02  1.90373109E-01  8.52161486E-01
  1.00000000E+00  1.00000000E+00  1.00000000E+00  1.00000000E+00  2.54938145E-02
  1.90373109E-01  8.52161486E-01  1.00000000E+00  1.00000000E+00  1.00000000E+00
  1.00000000E+00  7.38000247E-04  5.71800191E-03  2.94950099E-02  1.17286039E-01
  3.62949121E-01  5.84149195E-01  1.34176973E-01  6.24249876E-01  2.91755942E-01
  1.00000000E+00  1.00000000E+00  1.00000000E+00  1.00000000E+00  1.00000000E+00
  3.66556935E-03  2.83679194E-02  1.24756603E-01  3.39654631E-01  7.47585963E-01
 -1.57224381E+00  9.92388882E-01  1.00000000E+00  1.00000000E+00  1.00000000E+00
  1.00000000E+00
P(S=P) Contraction coefficients            R   N=         126
  0.00000000E+00  0.00000000E+00  0.00000000E+00  0.00000000E+00  0.00000000E+00
  0.00000000E+00  4.02486927E-02  2.37593957E-01  8.15853851E-01  1.00000000E+00
  1.00000000E+00  1.00000000E+00  0.00000000E+00  0.00000000E+00  0.00000000E+00
  0.00000000E+00  0.00000000E+00  0.00000000E+00  0.00000000E+00  4.02486927E-02
  2.37593957E-01  8.15853851E-01  1.00000000E+00  1.00000000E+00  1.00000000E+00
  0.00000000E+00  0.00000000E+00  0.00000000E+00  0.00000000E+00  0.00000000E+00
  0.00000000E+00  0.00000000E+00  4.02486927E-02  2.37593957E-01  8.15853851E-01
  1.00000000E+00  1.00000000E+00  1.00000000E+00  0.00000000E+00  0.00000000E+00
  0.00000000E+00  0.00000000E+00  0.00000000E+00  0.00000000E+00  0.00000000E+00
  4.02486927E-02  2.37593957E-01  8.15853851E-01  1.00000000E+00  1.00000000E+00
  1.00000000E+00  0.00000000E+00  0.00000000E+00  0.00000000E+00  0.00000000E+00
  0.00000000E+00  0.00000000E+00  0.00000000E+00  0.00000000E+00  0.00000000E+00
  0.00000000E+00  0.00000000E+00  0.00000000E+00  0.00000000E+00  0.00000000E+00
  0.00000000E+00  0.00000000E+00  0.00000000E+00  0.00000000E+00  0.00000000E+00
  0.00000000E+00  0.00000000E+00  0.00000000E+00  0.00000000E+00  0.00000000E+00
  0.00000000E+00  0.00000000E+00  0.00000000E+00  0.00000000E+00  0.00000000E+00
  0.00000000E+00  0.00000000E+00  0.00000000E+00  0.00000000E+00  0.00000000E+00
  0.00000000E+00  0.00000000E+00  0.00000000E+00  0.00000000E+00  0.00000000E+00
  0.00000000E+00  0.00000000E+00  0.00000000E+00  0.00000000E+00  0.00000000E+00
  0.00000000E+00  0.00000000E+00  0.00000000E+00  0.00000000E+00  0.00000000E+00
  0.00000000E+00  0.00000000E+00  0.00000000E+00  0.00000000E+00  0.00000000E+00
  0.00000000E+00  0.00000000E+00  0.00000000E+00  0.00000000E+00  0.00000000E+00
  0.00000000E+00  0.00000000E+00  0.00000000E+00  0.00000000E+00  1.00000000E+00
  0.00000000E+00  0.00000000E+00  0.00000000E+00  0.00000000E+00  0.00000000E+00
  0.00000000E+00  0.00000000E+00  0.00000000E+00  0.00000000E+00  0.00000000E+00
  0.00000000E+00
Coordinates of each shell                  R   N=         216
  9.28543873E-01  3.39991522E+00  9.61716238E-02  9.28543873E-01  3.39991522E+00
  9.61716238E-02  9.28543873E-01  3.39991522E+00  9.61716238E-02  9.28543873E-01
  3.39991522E+00  9.61716238E-02  9.28543873E-01  3.39991522E+00  9.61716238E-02
  9.28543873E-01  3.39991522E+00  9.61716238E-02  7.05243175E-03  7.30695365E-01
 -5.68940685E-01  7.05243175E-03  7.30695365E-01 -5.68940685E-01  7.05243175E-03
  7.30695365E-01 -5.68940685E-01  7.05243175E-03  7.30695365E-01 -5.68940685E-01
  7.05243175E-03  7.30695365E-01 -5.68940685E-01  7.05243175E-03  7.30695365E-01
 -5.68940685E-01 -2.33724380E+00 -1.84664009E-01  7.69199537E-01 -2.33724380E+00
 -1.84664009E-01  7.69199537E-01 -2.33724380E+00 -1.84664009E-01  7.69199537E-01
 -2.33724380E+00 -1.84664009E-01  7.69199537E-01 -2.33724380E+00 -1.84664009E-01
  7.69199537E-01 -2.33724380E+00 -1.84664009E-01  7.69199537E-01 -4.49457903E+00
 -9.53848463E-01 -2.97788043E-01 -4.49457903E+00 -9.53848463E-01 -2.97788043E-01
 -4.49457903E+00 -9.53848463E-01 -2.97788043E-01 -4.49457903E+00 -9.53848463E-01
 -2.97788043E-01 -4.49457903E+00 -9.53848463E-01 -2.97788043E-01 -4.49457903E+00
 -9.53848463E-01 -2.97788043E-01 -4.78950387E+00 -9.76983047E-01 -2.33221629E+00
 -4.78950387E+00 -9.76983047E-01 -2.33221629E+00 -4.78950387E+00 -9.76983047E-01
 -2.33221629E+00 -4.78950387E+00 -9.76983047E-01 -2.33221629E+00 -4.78950387E+00
 -9.76983047E-01 -2.33221629E+00  2.61513572E+00  3.86371562E+00 -9.99120643E-01
  2.61513572E+00  3.86371562E+00 -9.99120643E-01  2.61513572E+00  3.86371562E+00
 -9.99120643E-01  2.61513572E+00  3.86371562E+00 -9.99120643E-01  2.61513572E+00
  3.86371562E+00 -9.99120643E-01 -6.05638576E+00 -1.59452390E+00  8.72478223E-01
 -6.05638576E+00 -1.59452390E+00  8.72478223E-01 -6.05638576E+00 -1.59452390E+00
  8.72478223E-01 -6.05638576E+00 -1.59452390E+00  8.72478223E-01 -6.05638576E+00
 -1.59452390E+00  8.72478223E-01 -2.19278799E+00 -2.33537490E-01  2.82204028E+00
 -2.19278799E+00 -2.33537490E-01  2.82204028E+00 -2.19278799E+00 -2.33537490E-01
  2.82204028E+00 -2.19278799E+00 -2.33537490E-01  2.82204028E+00 -2.19278799E+00
 -2.33537490E-01  2.82204028E+00 -2.39634003E-01  5.78792161E-01 -2.60765070E+00
 -2.39634003E-01  5.78792161E-01 -2.60765070E+00 -2.39634003E-01  5.78792161E-01
 -2.60765070E+00 -2.39634003E-01  5.78792161E-01 -2.60765070E+00 -2.39634003E-01
  5.78792161E-01 -2.60765070E+00  1.36476597E+00  3.60426742E+00  2.10457386E+00
  1.36476597E+00  3.60426742E+00  2.10457386E+00  1.36476597E+00  3.60426742E+00
  2.10457386E+00  1.36476597E+00  3.60426742E+00  2.10457386E+00  1.36476597E+00
  3.60426742E+00  2.10457386E+00 -5.58512625E-01  4.75304155E+00 -3.93979675E-01
 -5.58512625E-01  4.75304155E+00 -3.93979675E-01 -5.58512625E-01  4.75304155E+00
 -3.93979675E-01 -5.58512625E-01  4.75304155E+00 -3.93979675E-01 -5.58512625E-01
  4.75304155E+00 -3.93979675E-01  2.66084010E+00 -1.64396241E+00  3.18835497E-02
  2.66084010E+00 -1.64396241E+00  3.18835497E-02  2.66084010E+00 -1.64396241E+00
  3.18835497E-02  2.66084010E+00 -1.64396241E+00  3.18835497E-02  2.66084010E+00
 -1.64396241E+00  3.18835497E-02  2.66084010E+00 -1.64396241E+00  3.18835497E-02
  2.66084010E+00 -1.64396241E+00  3.18835497E-02  2.66084010E+00 -1.64396241E+00
  3.18835497E-02  2.66084010E+00 -1.64396241E+00  3.18835497E-02  2.66084010E+00
 -1.64396241E+00  3.18835497E-02  2.66084010E+00 -1.64396241E+00  3.18835497E-02
  2.66084010E+00 -1.64396241E+00  3.18835497E-02  2.66084010E+00 -1.64396241E+00
  3.18835497E-02
Constraint Structure                       R   N=          36
  9.28543873E-01  3.39991522E+00  9.61716238E-02  7.05243175E-03  7.30695365E-01
 -5.68940685E-01 -2.33724380E+00 -1.84664009E-01  7.69199537E-01 -4.49457903E+00
 -9.53848463E-01 -2.97788043E-01 -4.78950387E+00 -9.76983047E-01 -2.33221629E+00
  2.61513572E+00  3.86371562E+00 -9.99120643E-01 -6.05638576E+00 -1.59452390E+00
  8.72478223E-01 -2.19278799E+00 -2.33537490E-01  2.82204028E+00 -2.39634003E-01
  5.78792161E-01 -2.60765070E+00  1.36476597E+00  3.60426742E+00  2.10457386E+00
 -5.58512625E-01  4.75304155E+00 -3.93979675E-01  2.66084010E+00 -1.64396241E+00
  3.18835497E-02
Num ILSW                                   I              100
ILSW                                       I   N=         100
           0           0           0           0           2           0
           0           0           0           0         402          -1
           5           0           0           0           0           0
           0           0           0           0           0           0
           1           0           0           0           0           0
           0           0      100000           0          -1           0
           0           0           0           0           0           0
           0           0           0           1           0           0
           0           0           1           0           0           0
           0           0           4          41           0           0
           0           0           5           0           0           0
           0           0           0           0           0           0
           0           0           0           0           0           0
           0           0           0           0           0           0
           0           0           0           0           0           0
           0           0           0           0           0           0
           0           0           0           0
Num RLSW                                   I               41
RLSW                                       R   N=          41
  8.00000000E-01  7.20000000E-01  1.00000000E+00  8.10000000E-01  2.00000000E-01
  0.00000000E+00  0.00000000E+00  1.00000000E+00  0.00000000E+00  0.00000000E+00
  0.00000000E+00  0.00000000E+00  1.00000000E+00  0.00000000E+00  0.00000000E+00
  0.00000000E+00  0.00000000E+00  1.00000000E+00  0.00000000E+00  0.00000000E+00
  0.00000000E+00  0.00000000E+00  1.00000000E+00  0.00000000E+00  0.00000000E+00
  0.00000000E+00  0.00000000E+00  1.00000000E+00  0.00000000E+00  0.00000000E+00
  0.00000000E+00  0.00000000E+00  0.00000000E+00  0.00000000E+00  0.00000000E+00
  0.00000000E+00  0.00000000E+00  0.00000000E+00  1.00000000E+00  1.00000000E+00
  0.00000000E+00
MxBond                                     I                4
NBond                                      I   N=          12
           4           4           3           3           1           1
           1           1           1           1           1           1
IBond                                      I   N=          48
           2           6          10          11           1           3
           9          12           2           4           8           0
           3           5           7           0           4           0
           0           0           1           0           0           0
           4           0           0           0           3           0
           0           0           2           0           0           0
           1           0           0           0           1           0
           0           0           2           0           0           0
RBond                                      R   N=          48
  1.00000000E+00  1.00000000E+00  1.00000000E+00  1.00000000E+00  1.00000000E+00
  1.00000000E+00  1.00000000E+00  1.00000000E+00  1.00000000E+00  2.00000000E+00
  1.00000000E+00  0.00000000E+00  2.00000000E+00  1.00000000E+00  1.00000000E+00
  0.00000000E+00  1.00000000E+00  0.00000000E+00  0.00000000E+00  0.00000000E+00
  1.00000000E+00  0.00000000E+00  0.00000000E+00  0.00000000E+00  1.00000000E+00
  0.00000000E+00  0.00000000E+00  0.00000000E+00  1.00000000E+00  0.00000000E+00
  0.00000000E+00  0.00000000E+00  1.00000000E+00  0.00000000E+00  0.00000000E+00
  0.00000000E+00  1.00000000E+00  0.00000000E+00  0.00000000E+00  0.00000000E+00
  1.00000000E+00  0.00000000E+00  0.00000000E+00  0.00000000E+00  1.00000000E+00
  0.00000000E+00  0.00000000E+00  0.00000000E+00
Virial Ratio                               R      2.003305734555451E+00
SCF Energy                                 R     -6.168934414830591E+02
Total Energy                               R     -6.168934414830591E+02
RMS Density                                R      5.264259493127383E-12
Nuclear derivative order                   I                0
External E-field                           R   N=          35
  0.00000000E+00  0.00000000E+00  0.00000000E+00  0.00000000E+00  0.00000000E+00
  0.00000000E+00  0.00000000E+00  0.00000000E+00  0.00000000E+00  0.00000000E+00
  0.00000000E+00  0.00000000E+00  0.00000000E+00  0.00000000E+00  0.00000000E+00
  0.00000000E+00  0.00000000E+00  0.00000000E+00  0.00000000E+00  0.00000000E+00
  0.00000000E+00  0.00000000E+00  0.00000000E+00  0.00000000E+00  0.00000000E+00
  0.00000000E+00  0.00000000E+00  0.00000000E+00  0.00000000E+00  0.00000000E+00
  0.00000000E+00  0.00000000E+00  0.00000000E+00  0.00000000E+00  0.00000000E+00
IOpCl                                      I                0
IROHF                                      I                0
Alpha Orbital Energies                     R   N=         167
 -1.01532783E+02 -1.02540029E+01 -1.01981024E+01 -1.01882037E+01 -1.01854286E+01
 -9.44636115E+00 -7.21079630E+00 -7.20132729E+00 -7.20119897E+00 -8.55768093E-01
 -7.84148566E-01 -7.43951231E-01 -6.43163731E-01 -5.75541294E-01 -4.82538953E-01
 -4.75925551E-01 -4.43480912E-01 -4.15558821E-01 -4.05078191E-01 -3.70995691E-01
 -3.65722665E-01 -3.05113818E-01 -2.97487770E-01 -2.81359582E-01 -4.21677466E-02
 -8.21256122E-03  4.29715690E-03  7.81846343E-03  1.66798207E-02  2.72595456E-02
  3.79989153E-02  3.98107188E-02  6.30977374E-02  6.43037332E-02  7.10574317E-02
  8.37153440E-02  8.67732989E-02  9.67872702E-02  1.09930986E-01  1.16513474E-01
  1.18964878E-01  1.21383813E-01  1.29018372E-01  1.29302273E-01  1.33413481E-01
  1.39941982E-01  1.48962535E-01  1.55490415E-01  1.59465263E-01  1.62551528E-01
  1.70899031E-01  1.85748892E-01  1.89671691E-01  2.10000248E-01  2.18101169E-01
  2.25045781E-01  2.49366303E-01  2.60322121E-01  2.65314085E-01  2.87494340E-01
  3.38382650E-01  3.55637345E-01  3.88215024E-01  4.21956356E-01  4.29581668E-01
  4.46051065E-01  4.60877678E-01  4.79085421E-01  4.90155425E-01  4.97099532E-01
  5.22260741E-01  5.27796801E-01  5.60724983E-01  5.85680260E-01  6.01779651E-01
  6.18860021E-01  6.33703766E-01  6.48426680E-01  6.52832831E-01  6.59073158E-01
  6.89861866E-01  7.07119883E-01  7.29148398E-01  7.40154893E-01  7.93738847E-01
  8.15757091E-01  8.27951795E-01  8.63799280E-01  8.84621084E-01  8.98596223E-01
  9.41414091E-01  9.52686078E-01  1.01218279E+00  1.01941670E+00  1.05961509E+00
  1.08265860E+00  1.11618815E+00  1.16400005E+00  1.18820698E+00  1.28424630E+00
  1.38622388E+00  1.42834738E+00  1.44543998E+00  1.46184062E+00  1.49150487E+00
  1.52499755E+00  1.55829401E+00  1.57943425E+00  1.59194391E+00  1.61920729E+00
  1.65089267E+00  1.67584601E+00  1.69363852E+00  1.72417434E+00  1.77501251E+00
  1.78294368E+00  1.85770375E+00  1.87670145E+00  1.93188804E+00  1.97346400E+00
  2.00432414E+00  2.06604939E+00  2.11958000E+00  2.16158767E+00  2.18746203E+00
  2.19948318E+00  2.23976076E+00  2.29308248E+00  2.31018771E+00  2.34443919E+00
  2.36422552E+00  2.44968385E+00  2.45793299E+00  2.48979922E+00  2.51976005E+00
  2.55141150E+00  2.57309233E+00  2.58100755E+00  2.59597053E+00  2.62917331E+00
  2.71998503E+00  2.72602519E+00  2.75057303E+00  2.76591349E+00  2.84736304E+00
  2.85515378E+00  2.91874807E+00  3.05099002E+00  3.07566706E+00  3.13848775E+00
  3.37261869E+00  3.49630146E+00  3.70613859E+00  3.78069554E+00  3.79130462E+00
  3.93151291E+00  4.08541209E+00  4.27468877E+00  9.74317802E+00  2.37143565E+01
  2.37635716E+01  2.39343359E+01  2.42260180E+01  2.59204962E+01  2.59637665E+01
  2.64113366E+01  2.15731178E+02
Alpha MO coefficients                      R   N=       27889
  3.10094202E-07 -7.19738579E-07 -1.93000228E-06 -2.41026528E-06 -1.31141540E-06
  2.66913283E-06  1.87853227E-05  1.34467300E-05  8.69395688E-06  1.77305925E-05
  2.72291381E-05  2.75476664E-05  1.64973005E-05 -1.46377017E-03 -1.15943911E-04
  4.52478277E-04  3.30326799E-05  8.16877168E-06 -4.36857794E-06 -3.50494639E-06
  1.32117120E-05  3.72044073E-06  1.22110153E-06 -2.54654194E-06  7.94785130E-06
 -9.15618089E-06  3.08194753E-06 -2.04831586E-05 -6.05529273E-06  1.51392080E-05
 -1.17509403E-05  1.58977110E-04  1.27683566E-04 -1.21174221E-04 -3.07221754E-05
  3.39329289E-03 -5.63347463E-04  4.02522330E-04  6.25558434E-04  3.76428379E-06
  1.45196179E-06  8.16016441E-07 -1.84164505E-06  6.96057899E-07 -5.09844577E-07
  1.54078555E-06  4.12238609E-06 -3.19893607E-06 -4.05011466E-06 -8.56335267E-06
 -2.16618596E-05  1.11304589E-05  2.42444399E-05  3.29084796E-05  2.73046092E-05
 -3.00213098E-07 -4.32317655E-05 -1.16248239E-03 -1.11983747E-03 -3.57562694E-04
 -1.58285776E-05  6.72024535E-06  4.42949213E-06 -6.96713870E-06  8.91478687E-08
 -1.80928884E-06  2.12468989E-07 -6.35619722E-07 -1.95372950E-06  4.18335732E-07
  7.17719209E-07  6.60927338E-06  9.41986173E-06 -1.33295900E-06  9.80778530E-07
 -2.39259565E-05 -6.57244744E-05 -1.99941802E-05  5.54027922E-05 -1.42645362E-03
 -2.89808430E-04 -1.68901998E-04 -9.41077277E-05 -4.52973266E-06 -1.87794744E-06
 -2.43809773E-06 -1.27438839E-06 -1.51712797E-06 -2.52638635E-06  2.76557729E-05
  5.65106010E-05  6.12003669E-05  6.76618694E-06 -2.21657385E-07  5.21077711E-06
  1.21694211E-05 -8.12221516E-05  8.40141536E-05  2.08627232E-04  9.07908769E-06
  1.25863346E-05 -1.07150971E-05  1.61398433E-06 -1.63607808E-05 -5.31998463E-05
 -1.30526154E-04 -4.15746999E-07 -3.32966854E-07  1.20658620E-06  5.61110072E-06
 -3.77374337E-05  4.88921190E-05  8.58212673E-05 -1.02999607E-05  1.02094545E-06
  1.42590055E-05  2.41952729E-07 -5.58835698E-05 -1.44389982E-04  3.99272551E-06
 -6.04887258E-06  2.68531515E-06 -1.19991728E-05  9.36441554E-06 -5.74467258E-05
  1.17630780E-06  7.38100613E-05 -3.52358040E-06  1.09741850E-05  1.44267872E-05
 -6.98638729E-06  3.81013555E-05 -1.29100761E-04 -2.79716863E-04  1.24022072E-06
 -5.88447747E-06  1.97312686E-07  4.11610006E-01  6.54077022E-01  1.49992554E-02