(R)-3-chloro-1-butene tau=120                                           
SP        RB3LYP                                                      6-311++G(d,p)       
Number of atoms                            I               12
Info1-9                                    I   N=           9
          26          26           0           0           0         110
           1          18        -502
Full Title                                 C   N=           3
(R)-3-chloro-1-butene tau=120       
Route                                      C   N=           7
#P B3LYP/6-311++G** scf(conver=11) int=ultrafine polar=optro
t cphf(rdfreq,conver=11)
Charge                                     I                0
Multiplicity                               I                1
Number of electrons                        I               48
Number of alpha electrons                  I               24
Number of beta electrons                   I               24
Number of basis functions                  I              167
Number of independent functions            I              167
Number of point charges in /Mol/           I                0
Number of translation vectors              I                0
Atomic numbers                             I   N=          12
           6           6           6           6           1           1
           1           1           1           1           1          17
Nuclear charges                            R   N=          12
  6.00000000E+00  6.00000000E+00  6.00000000E+00  6.00000000E+00  1.00000000E+00
  1.00000000E+00  1.00000000E+00  1.00000000E+00  1.00000000E+00  1.00000000E+00
  1.00000000E+00  1.70000000E+01
Current cartesian coordinates              R   N=          36
  9.07184569E-01  3.31632499E+00  5.07762344E-02 -2.28187100E-02  6.59269642E-01
 -5.78857468E-01 -2.26211220E+00 -1.75726828E-01  7.73309039E-01 -4.41616491E+00
 -9.38864557E-01 -2.69510698E-01 -4.52456210E+00 -1.02946306E+00 -2.31892528E+00
  2.61243371E+00  3.88723996E+00 -9.55919550E-01 -6.08097049E+00 -1.48940161E+00
  7.86399479E-01 -2.03024037E+00 -7.05403993E-02  2.81326751E+00 -3.01065458E-01
  3.75350147E-01 -2.59910169E+00  1.23314039E+00  3.45052333E+00  2.08730738E+00
 -6.35855654E-01  4.62470851E+00 -3.90655354E-01  2.61709338E+00 -1.58320214E+00
  4.25485213E-02
Number of symbols in /Mol/                 I                0
Force Field                                I                0
Atom Types                                 C   N=          12
                                                            
                                                            
                        
Int Atom Types                             I   N=          12
           0           0           0           0           0           0
           0           0           0           0           0           0
MM charges                                 R   N=          12
  0.00000000E+00  0.00000000E+00  0.00000000E+00  0.00000000E+00  0.00000000E+00
  0.00000000E+00  0.00000000E+00  0.00000000E+00  0.00000000E+00  0.00000000E+00
  0.00000000E+00  0.00000000E+00
Integer atomic weights                     I   N=          12
          12          12          12          12           1           1
           1           1           1           1           1          35
Real atomic weights                        R   N=          12
  1.20000000E+01  1.20000000E+01  1.20000000E+01  1.20000000E+01  1.00782504E+00
  1.00782504E+00  1.00782504E+00  1.00782504E+00  1.00782504E+00  1.00782504E+00
  1.00782504E+00  3.49688527E+01
Atom fragment info                         I   N=          12
           0           0           0           0           0           0
           0           0           0           0           0           0
Atom residue num                           I   N=          12
           0           0           0           0           0           0
           0           0           0           0           0           0
Nuclear spins                              I   N=          12
           0           0           0           0           1           1
           1           1           1           1           1           3
Nuclear ZEff                               R   N=          12
 -3.60000000E+00 -3.60000000E+00 -3.60000000E+00 -3.60000000E+00 -1.00000000E+00
 -1.00000000E+00 -1.00000000E+00 -1.00000000E+00 -1.00000000E+00 -1.00000000E+00
 -1.00000000E+00 -1.42400000E+01
Nuclear ZNuc                               R   N=          12
  6.00000000E+00  6.00000000E+00  6.00000000E+00  6.00000000E+00  1.00000000E+00
  1.00000000E+00  1.00000000E+00  1.00000000E+00  1.00000000E+00  1.00000000E+00
  1.00000000E+00  1.70000000E+01
Nuclear QMom                               R   N=          12
  0.00000000E+00  0.00000000E+00  0.00000000E+00  0.00000000E+00  0.00000000E+00
  0.00000000E+00  0.00000000E+00  0.00000000E+00  0.00000000E+00  0.00000000E+00
  0.00000000E+00 -8.16500000E+00
Nuclear GFac                               R   N=          12
  0.00000000E+00  0.00000000E+00  0.00000000E+00  0.00000000E+00  2.79284600E+00
  2.79284600E+00  2.79284600E+00  2.79284600E+00  2.79284600E+00  2.79284600E+00
  2.79284600E+00  8.21874000E-01
MicOpt                                     I   N=          12
          -1          -1          -1          -1          -1          -1
          -1          -1          -1          -1          -1          -1
Number of residues                         I                0
Number of secondary structures             I                0
SymInf integers                            I   N=          26
           1           1           1           1           1           0
           0           0           0           0           0           0
           0           0           0           0           0           0
           0           0           0           0           0           0
           0           0
RotTr to input orientation                 R   N=          12
  9.99997879E-01  8.82978035E-04  1.86072338E-03 -8.90139216E-04  9.99992188E-01
  3.85129314E-03 -1.85730824E-03 -3.85294128E-03  9.99990853E-01  6.31379548E-04
 -5.08557585E-04  2.82879010E-04
Number of contracted shells                I               72
Number of primitive shells                 I              126
Pure/Cartesian d shells                    I                0
Pure/Cartesian f shells                    I                0
Highest angular momentum                   I                2
Largest degree of contraction              I                6
Shell types                                I   N=          72
           0          -1          -1          -1          -1          -2
           0          -1          -1          -1          -1          -2
           0          -1          -1          -1          -1          -2
           0          -1          -1          -1          -1          -2
           0           0           0           0           1           0
           0           0           0           1           0           0
           0           0           1           0           0           0
           0           1           0           0           0           0
           1           0           0           0           0           1
           0           0           0           0           1           0
           0           0           0           0           0          -1
           1           1           1           1           1          -2
Number of primitives per shell             I   N=          72
           6           3           1           1           1           1
           6           3           1           1           1           1
           6           3           1           1           1           1
           6           3           1           1           1           1
           3           1           1           1           1           3
           1           1           1           1           3           1
           1           1           1           3           1           1
           1           1           3           1           1           1
           1           3           1           1           1           1
           3           1           1           1           1           6
           3           1           1           1           1           1
           5           2           1           1           1           1
Shell to atom map                          I   N=          72
           1           1           1           1           1           1
           2           2           2           2           2           2
           3           3           3           3           3           3
           4           4           4           4           4           4
           5           5           5           5           5           6
           6           6           6           6           7           7
           7           7           7           8           8           8
           8           8           9           9           9           9
           9          10          10          10          10          10
          11          11          11          11          11          12
          12          12          12          12          12          12
          12          12          12          12          12          12
Primitive exponents                        R   N=         126
  4.56324000E+03  6.82024000E+02  1.54973000E+02  4.44553000E+01  1.30290000E+01
  1.82773000E+00  2.09642000E+01  4.80331000E+00  1.45933000E+00  4.83456000E-01
  1.45585000E-01  4.38000000E-02  6.26000000E-01  4.56324000E+03  6.82024000E+02
  1.54973000E+02  4.44553000E+01  1.30290000E+01  1.82773000E+00  2.09642000E+01
  4.80331000E+00  1.45933000E+00  4.83456000E-01  1.45585000E-01  4.38000000E-02
  6.26000000E-01  4.56324000E+03  6.82024000E+02  1.54973000E+02  4.44553000E+01
  1.30290000E+01  1.82773000E+00  2.09642000E+01  4.80331000E+00  1.45933000E+00
  4.83456000E-01  1.45585000E-01  4.38000000E-02  6.26000000E-01  4.56324000E+03
  6.82024000E+02  1.54973000E+02  4.44553000E+01  1.30290000E+01  1.82773000E+00
  2.09642000E+01  4.80331000E+00  1.45933000E+00  4.83456000E-01  1.45585000E-01
  4.38000000E-02  6.26000000E-01  3.38650000E+01  5.09479000E+00  1.15879000E+00
  3.25840000E-01  1.02741000E-01  3.60000000E-02  7.50000000E-01  3.38650000E+01
  5.09479000E+00  1.15879000E+00  3.25840000E-01  1.02741000E-01  3.60000000E-02
  7.50000000E-01  3.38650000E+01  5.09479000E+00  1.15879000E+00  3.25840000E-01
  1.02741000E-01  3.60000000E-02  7.50000000E-01  3.38650000E+01  5.09479000E+00
  1.15879000E+00  3.25840000E-01  1.02741000E-01  3.60000000E-02  7.50000000E-01
  3.38650000E+01  5.09479000E+00  1.15879000E+00  3.25840000E-01  1.02741000E-01
  3.60000000E-02  7.50000000E-01  3.38650000E+01  5.09479000E+00  1.15879000E+00
  3.25840000E-01  1.02741000E-01  3.60000000E-02  7.50000000E-01  3.38650000E+01
  5.09479000E+00  1.15879000E+00  3.25840000E-01  1.02741000E-01  3.60000000E-02
  7.50000000E-01  1.05819000E+05  1.58720000E+04  3.61965000E+03  1.03080000E+03
  3.39908000E+02  1.24538000E+02  1.24538000E+02  4.95135000E+01  2.08056000E+01
  6.58346000E+00  2.56468000E+00  5.59763000E-01  1.83273000E-01  4.83000000E-02
  5.89776000E+02  1.39849000E+02  4.51413000E+01  1.68733000E+01  2.77152000E+00
  6.74110000E+00  2.77152000E+00  1.02387000E+00  3.81368000E-01  1.09437000E-01
  7.50000000E-01
Contraction coefficients                   R   N=         126
  1.96665025E-03  1.52306019E-02  7.61269097E-02  2.60801033E-01  6.16462078E-01
  2.21006028E-01  1.14660081E-01  9.19999648E-01 -3.03068213E-03  1.00000000E+00
  1.00000000E+00  1.00000000E+00  1.00000000E+00  1.96665025E-03  1.52306019E-02
  7.61269097E-02  2.60801033E-01  6.16462078E-01  2.21006028E-01  1.14660081E-01
  9.19999648E-01 -3.03068213E-03  1.00000000E+00  1.00000000E+00  1.00000000E+00
  1.00000000E+00  1.96665025E-03  1.52306019E-02  7.61269097E-02  2.60801033E-01
  6.16462078E-01  2.21006028E-01  1.14660081E-01  9.19999648E-01 -3.03068213E-03
  1.00000000E+00  1.00000000E+00  1.00000000E+00  1.00000000E+00  1.96665025E-03
  1.52306019E-02  7.61269097E-02  2.60801033E-01  6.16462078E-01  2.21006028E-01
  1.14660081E-01  9.19999648E-01 -3.03068213E-03  1.00000000E+00  1.00000000E+00
  1.00000000E+00  1.00000000E+00  2.54938145E-02  1.90373109E-01  8.52161486E-01
  1.00000000E+00  1.00000000E+00  1.00000000E+00  1.00000000E+00  2.54938145E-02
  1.90373109E-01  8.52161486E-01  1.00000000E+00  1.00000000E+00  1.00000000E+00
  1.00000000E+00  2.54938145E-02  1.90373109E-01  8.52161486E-01  1.00000000E+00
  1.00000000E+00  1.00000000E+00  1.00000000E+00  2.54938145E-02  1.90373109E-01
  8.52161486E-01  1.00000000E+00  1.00000000E+00  1.00000000E+00  1.00000000E+00
  2.54938145E-02  1.90373109E-01  8.52161486E-01  1.00000000E+00  1.00000000E+00
  1.00000000E+00  1.00000000E+00  2.54938145E-02  1.90373109E-01  8.52161486E-01
  1.00000000E+00  1.00000000E+00  1.00000000E+00  1.00000000E+00  2.54938145E-02
  1.90373109E-01  8.52161486E-01  1.00000000E+00  1.00000000E+00  1.00000000E+00
  1.00000000E+00  7.38000247E-04  5.71800191E-03  2.94950099E-02  1.17286039E-01
  3.62949121E-01  5.84149195E-01  1.34176973E-01  6.24249876E-01  2.91755942E-01
  1.00000000E+00  1.00000000E+00  1.00000000E+00  1.00000000E+00  1.00000000E+00
  3.66556935E-03  2.83679194E-02  1.24756603E-01  3.39654631E-01  7.47585963E-01
 -1.57224381E+00  9.92388882E-01  1.00000000E+00  1.00000000E+00  1.00000000E+00
  1.00000000E+00
P(S=P) Contraction coefficients            R   N=         126
  0.00000000E+00  0.00000000E+00  0.00000000E+00  0.00000000E+00  0.00000000E+00
  0.00000000E+00  4.02486927E-02  2.37593957E-01  8.15853851E-01  1.00000000E+00
  1.00000000E+00  1.00000000E+00  0.00000000E+00  0.00000000E+00  0.00000000E+00
  0.00000000E+00  0.00000000E+00  0.00000000E+00  0.00000000E+00  4.02486927E-02
  2.37593957E-01  8.15853851E-01  1.00000000E+00  1.00000000E+00  1.00000000E+00
  0.00000000E+00  0.00000000E+00  0.00000000E+00  0.00000000E+00  0.00000000E+00
  0.00000000E+00  0.00000000E+00  4.02486927E-02  2.37593957E-01  8.15853851E-01
  1.00000000E+00  1.00000000E+00  1.00000000E+00  0.00000000E+00  0.00000000E+00
  0.00000000E+00  0.00000000E+00  0.00000000E+00  0.00000000E+00  0.00000000E+00
  4.02486927E-02  2.37593957E-01  8.15853851E-01  1.00000000E+00  1.00000000E+00
  1.00000000E+00  0.00000000E+00  0.00000000E+00  0.00000000E+00  0.00000000E+00
  0.00000000E+00  0.00000000E+00  0.00000000E+00  0.00000000E+00  0.00000000E+00
  0.00000000E+00  0.00000000E+00  0.00000000E+00  0.00000000E+00  0.00000000E+00
  0.00000000E+00  0.00000000E+00  0.00000000E+00  0.00000000E+00  0.00000000E+00
  0.00000000E+00  0.00000000E+00  0.00000000E+00  0.00000000E+00  0.00000000E+00
  0.00000000E+00  0.00000000E+00  0.00000000E+00  0.00000000E+00  0.00000000E+00
  0.00000000E+00  0.00000000E+00  0.00000000E+00  0.00000000E+00  0.00000000E+00
  0.00000000E+00  0.00000000E+00  0.00000000E+00  0.00000000E+00  0.00000000E+00
  0.00000000E+00  0.00000000E+00  0.00000000E+00  0.00000000E+00  0.00000000E+00
  0.00000000E+00  0.00000000E+00  0.00000000E+00  0.00000000E+00  0.00000000E+00
  0.00000000E+00  0.00000000E+00  0.00000000E+00  0.00000000E+00  0.00000000E+00
  0.00000000E+00  0.00000000E+00  0.00000000E+00  0.00000000E+00  0.00000000E+00
  0.00000000E+00  0.00000000E+00  0.00000000E+00  0.00000000E+00  1.00000000E+00
  0.00000000E+00  0.00000000E+00  0.00000000E+00  0.00000000E+00  0.00000000E+00
  0.00000000E+00  0.00000000E+00  0.00000000E+00  0.00000000E+00  0.00000000E+00
  0.00000000E+00
Coordinates of each shell                  R   N=         216
  9.07184569E-01  3.31632499E+00  5.07762344E-02  9.07184569E-01  3.31632499E+00
  5.07762344E-02  9.07184569E-01  3.31632499E+00  5.07762344E-02  9.07184569E-01
  3.31632499E+00  5.07762344E-02  9.07184569E-01  3.31632499E+00  5.07762344E-02
  9.07184569E-01  3.31632499E+00  5.07762344E-02 -2.28187100E-02  6.59269642E-01
 -5.78857468E-01 -2.28187100E-02  6.59269642E-01 -5.78857468E-01 -2.28187100E-02
  6.59269642E-01 -5.78857468E-01 -2.28187100E-02  6.59269642E-01 -5.78857468E-01
 -2.28187100E-02  6.59269642E-01 -5.78857468E-01 -2.28187100E-02  6.59269642E-01
 -5.78857468E-01 -2.26211220E+00 -1.75726828E-01  7.73309039E-01 -2.26211220E+00
 -1.75726828E-01  7.73309039E-01 -2.26211220E+00 -1.75726828E-01  7.73309039E-01
 -2.26211220E+00 -1.75726828E-01  7.73309039E-01 -2.26211220E+00 -1.75726828E-01
  7.73309039E-01 -2.26211220E+00 -1.75726828E-01  7.73309039E-01 -4.41616491E+00
 -9.38864557E-01 -2.69510698E-01 -4.41616491E+00 -9.38864557E-01 -2.69510698E-01
 -4.41616491E+00 -9.38864557E-01 -2.69510698E-01 -4.41616491E+00 -9.38864557E-01
 -2.69510698E-01 -4.41616491E+00 -9.38864557E-01 -2.69510698E-01 -4.41616491E+00
 -9.38864557E-01 -2.69510698E-01 -4.52456210E+00 -1.02946306E+00 -2.31892528E+00
 -4.52456210E+00 -1.02946306E+00 -2.31892528E+00 -4.52456210E+00 -1.02946306E+00
 -2.31892528E+00 -4.52456210E+00 -1.02946306E+00 -2.31892528E+00 -4.52456210E+00
 -1.02946306E+00 -2.31892528E+00  2.61243371E+00  3.88723996E+00 -9.55919550E-01
  2.61243371E+00  3.88723996E+00 -9.55919550E-01  2.61243371E+00  3.88723996E+00
 -9.55919550E-01  2.61243371E+00  3.88723996E+00 -9.55919550E-01  2.61243371E+00
  3.88723996E+00 -9.55919550E-01 -6.08097049E+00 -1.48940161E+00  7.86399479E-01
 -6.08097049E+00 -1.48940161E+00  7.86399479E-01 -6.08097049E+00 -1.48940161E+00
  7.86399479E-01 -6.08097049E+00 -1.48940161E+00  7.86399479E-01 -6.08097049E+00
 -1.48940161E+00  7.86399479E-01 -2.03024037E+00 -7.05403993E-02  2.81326751E+00
 -2.03024037E+00 -7.05403993E-02  2.81326751E+00 -2.03024037E+00 -7.05403993E-02
  2.81326751E+00 -2.03024037E+00 -7.05403993E-02  2.81326751E+00 -2.03024037E+00
 -7.05403993E-02  2.81326751E+00 -3.01065458E-01  3.75350147E-01 -2.59910169E+00
 -3.01065458E-01  3.75350147E-01 -2.59910169E+00 -3.01065458E-01  3.75350147E-01
 -2.59910169E+00 -3.01065458E-01  3.75350147E-01 -2.59910169E+00 -3.01065458E-01
  3.75350147E-01 -2.59910169E+00  1.23314039E+00  3.45052333E+00  2.08730738E+00
  1.23314039E+00  3.45052333E+00  2.08730738E+00  1.23314039E+00  3.45052333E+00
  2.08730738E+00  1.23314039E+00  3.45052333E+00  2.08730738E+00  1.23314039E+00
  3.45052333E+00  2.08730738E+00 -6.35855654E-01  4.62470851E+00 -3.90655354E-01
 -6.35855654E-01  4.62470851E+00 -3.90655354E-01 -6.35855654E-01  4.62470851E+00
 -3.90655354E-01 -6.35855654E-01  4.62470851E+00 -3.90655354E-01 -6.35855654E-01
  4.62470851E+00 -3.90655354E-01  2.61709338E+00 -1.58320214E+00  4.25485213E-02
  2.61709338E+00 -1.58320214E+00  4.25485213E-02  2.61709338E+00 -1.58320214E+00
  4.25485213E-02  2.61709338E+00 -1.58320214E+00  4.25485213E-02  2.61709338E+00
 -1.58320214E+00  4.25485213E-02  2.61709338E+00 -1.58320214E+00  4.25485213E-02
  2.61709338E+00 -1.58320214E+00  4.25485213E-02  2.61709338E+00 -1.58320214E+00
  4.25485213E-02  2.61709338E+00 -1.58320214E+00  4.25485213E-02  2.61709338E+00
 -1.58320214E+00  4.25485213E-02  2.61709338E+00 -1.58320214E+00  4.25485213E-02
  2.61709338E+00 -1.58320214E+00  4.25485213E-02  2.61709338E+00 -1.58320214E+00
  4.25485213E-02
Constraint Structure                       R   N=          36
  9.07184569E-01  3.31632499E+00  5.07762344E-02 -2.28187100E-02  6.59269642E-01
 -5.78857468E-01 -2.26211220E+00 -1.75726828E-01  7.73309039E-01 -4.41616491E+00
 -9.38864557E-01 -2.69510698E-01 -4.52456210E+00 -1.02946306E+00 -2.31892528E+00
  2.61243371E+00  3.88723996E+00 -9.55919550E-01 -6.08097049E+00 -1.48940161E+00
  7.86399479E-01 -2.03024037E+00 -7.05403993E-02  2.81326751E+00 -3.01065458E-01
  3.75350147E-01 -2.59910169E+00  1.23314039E+00  3.45052333E+00  2.08730738E+00
 -6.35855654E-01  4.62470851E+00 -3.90655354E-01  2.61709338E+00 -1.58320214E+00
  4.25485213E-02
Num ILSW                                   I              100
ILSW                                       I   N=         100
           0           0           0           0           2           0
           0           0           0           0         402          -1
           5           0           0           0           0           0
           0           0           0           0           0           0
           1           0           0           0           0           0
           0           0      100000           0          -1           0
           0           0           0           0           0           0
           0           0           0           1           0           0
           0           0           1           0           0           0
           0           0           4          41           0           0
           0           0           5           0           0           0
           0           0           0           0           0           0
           0           0           0           0           0           0
           0           0           0           0           0           0
           0           0           0           0           0           0
           0           0           0           0           0           0
           0           0           0           0
Num RLSW                                   I               41
RLSW                                       R   N=          41
  8.00000000E-01  7.20000000E-01  1.00000000E+00  8.10000000E-01  2.00000000E-01
  0.00000000E+00  0.00000000E+00  1.00000000E+00  0.00000000E+00  0.00000000E+00
  0.00000000E+00  0.00000000E+00  1.00000000E+00  0.00000000E+00  0.00000000E+00
  0.00000000E+00  0.00000000E+00  1.00000000E+00  0.00000000E+00  0.00000000E+00
  0.00000000E+00  0.00000000E+00  1.00000000E+00  0.00000000E+00  0.00000000E+00
  0.00000000E+00  0.00000000E+00  1.00000000E+00  0.00000000E+00  0.00000000E+00
  0.00000000E+00  0.00000000E+00  0.00000000E+00  0.00000000E+00  0.00000000E+00
  0.00000000E+00  0.00000000E+00  0.00000000E+00  1.00000000E+00  1.00000000E+00
  0.00000000E+00
MxBond                                     I                4
NBond                                      I   N=          12
           4           4           3           3           1           1
           1           1           1           1           1           1
IBond                                      I   N=          48
           2           6          10          11           1           3
           9          12           2           4           8           0
           3           5           7           0           4           0
           0           0           1           0           0           0
           4           0           0           0           3           0
           0           0           2           0           0           0
           1           0           0           0           1           0
           0           0           2           0           0           0
RBond                                      R   N=          48
  1.00000000E+00  1.00000000E+00  1.00000000E+00  1.00000000E+00  1.00000000E+00
  1.00000000E+00  1.00000000E+00  1.00000000E+00  1.00000000E+00  2.00000000E+00
  1.00000000E+00  0.00000000E+00  2.00000000E+00  1.00000000E+00  1.00000000E+00
  0.00000000E+00  1.00000000E+00  0.00000000E+00  0.00000000E+00  0.00000000E+00
  1.00000000E+00  0.00000000E+00  0.00000000E+00  0.00000000E+00  1.00000000E+00
  0.00000000E+00  0.00000000E+00  0.00000000E+00  1.00000000E+00  0.00000000E+00
  0.00000000E+00  0.00000000E+00  1.00000000E+00  0.00000000E+00  0.00000000E+00
  0.00000000E+00  1.00000000E+00  0.00000000E+00  0.00000000E+00  0.00000000E+00
  1.00000000E+00  0.00000000E+00  0.00000000E+00  0.00000000E+00  1.00000000E+00
  0.00000000E+00  0.00000000E+00  0.00000000E+00
Virial Ratio                               R      2.002949649823465E+00
SCF Energy                                 R     -6.168928744222817E+02
Total Energy                               R     -6.168928744222817E+02
RMS Density                                R      6.497203432313933E-12
Nuclear derivative order                   I                0
External E-field                           R   N=          35
  0.00000000E+00  0.00000000E+00  0.00000000E+00  0.00000000E+00  0.00000000E+00
  0.00000000E+00  0.00000000E+00  0.00000000E+00  0.00000000E+00  0.00000000E+00
  0.00000000E+00  0.00000000E+00  0.00000000E+00  0.00000000E+00  0.00000000E+00
  0.00000000E+00  0.00000000E+00  0.00000000E+00  0.00000000E+00  0.00000000E+00
  0.00000000E+00  0.00000000E+00  0.00000000E+00  0.00000000E+00  0.00000000E+00
  0.00000000E+00  0.00000000E+00  0.00000000E+00  0.00000000E+00  0.00000000E+00
  0.00000000E+00  0.00000000E+00  0.00000000E+00  0.00000000E+00  0.00000000E+00
IOpCl                                      I                0
IROHF                                      I                0
Alpha Orbital Energies                     R   N=         167
 -1.01532004E+02 -1.02453096E+01 -1.01926153E+01 -1.01868698E+01 -1.01834126E+01
 -9.44649234E+00 -7.21078325E+00 -7.20142540E+00 -7.20126758E+00 -8.70200369E-01
 -7.89098636E-01 -7.42294389E-01 -6.46763057E-01 -5.78312357E-01 -4.90071274E-01
 -4.75235743E-01 -4.46333546E-01 -4.20511311E-01 -4.03186842E-01 -3.71812212E-01
 -3.69555393E-01 -3.05559959E-01 -2.96800492E-01 -2.81593195E-01 -3.73400978E-02
 -7.48985074E-03  6.03172477E-03  7.55875217E-03  2.30751584E-02  2.87079668E-02
  3.79027485E-02  4.19376800E-02  6.36647649E-02  6.51532167E-02  7.27241882E-02
  8.30358792E-02  8.83957668E-02  9.81978581E-02  1.10895762E-01  1.15553028E-01
  1.18064963E-01  1.22882320E-01  1.29306126E-01  1.30934500E-01  1.34065864E-01
  1.41715106E-01  1.49736558E-01  1.56030889E-01  1.62006660E-01  1.64400067E-01
  1.71731728E-01  1.87122808E-01  1.91273811E-01  2.14558943E-01  2.20314954E-01
  2.28497430E-01  2.47524628E-01  2.70380461E-01  2.74601910E-01  2.90610650E-01
  3.39263562E-01  3.59024682E-01  3.92631667E-01  4.25203719E-01  4.28648121E-01
  4.44636833E-01  4.55784062E-01  4.77094464E-01  4.87689338E-01  4.96327803E-01
  5.22656091E-01  5.33958006E-01  5.72865829E-01  5.90322615E-01  5.97529399E-01
  6.22189666E-01  6.37548632E-01  6.50178712E-01  6.55909940E-01  6.61268302E-01
  6.90263981E-01  7.12127180E-01  7.34248888E-01  7.42887601E-01  7.91633403E-01
  8.13408662E-01  8.26259683E-01  8.63217327E-01  8.93684396E-01  9.01489430E-01
  9.44853958E-01  9.61633219E-01  1.00646064E+00  1.03698433E+00  1.06725027E+00
  1.08360414E+00  1.13028525E+00  1.19413158E+00  1.20006695E+00  1.28661256E+00
  1.39359925E+00  1.41714142E+00  1.44910018E+00  1.48049745E+00  1.50103188E+00
  1.54500498E+00  1.56198837E+00  1.58301824E+00  1.59646295E+00  1.63742335E+00
  1.66079381E+00  1.69305575E+00  1.71632505E+00  1.73388907E+00  1.76655012E+00
  1.78711456E+00  1.87001311E+00  1.87842121E+00  1.93892443E+00  1.99834805E+00
  2.01703938E+00  2.06865680E+00  2.12341413E+00  2.17824955E+00  2.20152491E+00
  2.20838512E+00  2.24763696E+00  2.30587330E+00  2.32412833E+00  2.36720140E+00
  2.38537015E+00  2.45438142E+00  2.46587082E+00  2.48758843E+00  2.52460852E+00
  2.56223805E+00  2.56917835E+00  2.59351669E+00  2.60419732E+00  2.66144728E+00
  2.73041847E+00  2.73198877E+00  2.75625382E+00  2.80655793E+00  2.84458641E+00
  2.86379967E+00  2.93742411E+00  3.08431647E+00  3.10976423E+00  3.19916992E+00
  3.40837374E+00  3.53545487E+00  3.71613423E+00  3.78514784E+00  3.79733047E+00
  3.93794989E+00  4.11852202E+00  4.30416179E+00  9.75597993E+00  2.37042512E+01
  2.38472960E+01  2.39451141E+01  2.42661600E+01  2.59298418E+01  2.59839676E+01
  2.64478112E+01  2.15745823E+02
Alpha MO coefficients                      R   N=       27889
  1.34635400E-07 -2.63243627E-07 -2.65325097E-06 -1.93039291E-06 -1.42633119E-06
 -1.17023066E-08  1.99128916E-05  1.42659763E-05  1.03834176E-05  2.27452781E-05
  3.70038584E-05  2.31180665E-05  3.05668792E-05 -1.55201721E-03 -1.50263829E-04
  4.64268752E-04  3.19893901E-05  8.61815929E-06 -3.47684441E-06 -5.35918164E-06
  1.15078509E-05  1.79413857E-06  1.32455830E-06 -2.66787721E-06  1.19259836E-05
 -1.15421028E-05  4.35386521E-06 -1.84473940E-05 -1.42374395E-05  1.86479213E-05
 -1.31107163E-05  1.71378465E-04  1.24699180E-04 -1.32312035E-04 -2.40664655E-05
  3.80374418E-03 -5.11756965E-04  4.17507969E-04  7.53347196E-04  4.81384943E-06
 -1.45287319E-06  1.86712140E-06 -1.02502093E-06  8.24771221E-06 -5.96105085E-07
  1.73782642E-06  4.55170096E-06 -2.55403841E-06 -4.34029194E-06 -8.93895218E-06
 -2.77231342E-05  9.17638509E-06  2.63914434E-05  2.82579547E-05  2.86501753E-05
 -4.29562078E-07 -4.32774389E-05 -1.19066293E-03 -1.25621196E-03 -4.11654316E-04
 -7.51945524E-05  6.68695948E-06  8.81900477E-06 -5.28570793E-06  1.21793382E-06
 -3.46448497E-06  2.76453282E-07 -8.33779506E-07 -1.75999965E-06  7.08750064E-07
  7.82783738E-07  8.99852504E-06  6.48863122E-06 -3.18608667E-06 -7.22815711E-08
 -3.52226113E-05 -8.07848437E-05 -1.93220112E-05  6.06298355E-05 -1.74074043E-03
 -3.57206049E-04 -1.80069540E-04 -1.12719682E-04 -3.77043291E-06 -2.47062993E-06
 -3.76255263E-06 -2.03484049E-06 -2.20781098E-06 -2.59176760E-06  2.95841380E-05
  6.47934983E-05  6.83843883E-05  5.83243554E-06 -3.44825998E-08  5.18894926E-06
  1.19432798E-05 -8.01423950E-05  7.92526096E-05  2.24221284E-04  7.46513836E-06
  1.33388241E-05 -1.13689509E-05  2.50095716E-06 -2.30906319E-05 -5.10160256E-05
 -1.31089296E-04 -1.67700487E-06 -4.95017189E-07  1.14298487E-06  6.88667145E-06
 -4.63747534E-05  5.17937193E-05  1.25517338E-04 -1.20247003E-05  1.36853570E-06
  1.52923178E-05 -1.47183749E-06 -5.56459610E-05 -1.43646495E-04  5.19389765E-05
 -2.58215847E-06  2.85560226E-07 -1.15023692E-05  1.04992393E-05 -6.71726285E-05
 -2.09526875E-05  7.80155192E-05 -4.88638744E-06  1.25387234E-05  1.59714102E-05
 -8.20424296E-06  4.42989012E-05 -1.35709220E-04 -2.97689815E-04  1.59259644E-06
 -6.52564191E-06 -8.60848225E-07  4.11609594E-01  6.54076247E-01  1.50036886E-02