(R)-3-chloro-1-butene tau=120                                           
SP        RB3LYP                                                      6-311++G(d,p)       
Number of atoms                            I               12
Info1-9                                    I   N=           9
          26          26           0           0           0         110
           1          18        -502
Full Title                                 C   N=           3
(R)-3-chloro-1-butene tau=120       
Route                                      C   N=           7
#P B3LYP/6-311++G** scf(conver=11) int=ultrafine polar=optro
t cphf(rdfreq,conver=11)
Charge                                     I                0
Multiplicity                               I                1
Number of electrons                        I               48
Number of alpha electrons                  I               24
Number of beta electrons                   I               24
Number of basis functions                  I              167
Number of independent functions            I              167
Number of point charges in /Mol/           I                0
Number of translation vectors              I                0
Atomic numbers                             I   N=          12
           6           6           6           6           1           1
           1           1           1           1           1          17
Nuclear charges                            R   N=          12
  6.00000000E+00  6.00000000E+00  6.00000000E+00  6.00000000E+00  1.00000000E+00
  1.00000000E+00  1.00000000E+00  1.00000000E+00  1.00000000E+00  1.00000000E+00
  1.00000000E+00  1.70000000E+01
Current cartesian coordinates              R   N=          36
  8.82830120E-01  3.31775187E+00  7.96104576E-02 -6.10384174E-03  6.42971768E-01
 -6.04598972E-01 -2.29136581E+00 -1.94208258E-01  7.89694841E-01 -4.39645760E+00
 -9.44670331E-01 -3.05557826E-01 -4.51642915E+00 -1.01484616E+00 -2.35038786E+00
  2.60889214E+00  3.85571330E+00 -9.12610536E-01 -6.01428624E+00 -1.49719725E+00
  8.18178791E-01 -2.20553411E+00 -1.54335350E-01  2.84158637E+00 -1.84213446E-01
  6.29490095E-01 -2.66514899E+00  1.24220461E+00  3.43447269E+00  2.11009643E+00
 -6.15450292E-01  4.67837147E+00 -3.51357622E-01  2.62067055E+00 -1.58016112E+00
  4.43972011E-02
Number of symbols in /Mol/                 I                0
Force Field                                I                0
Atom Types                                 C   N=          12
                                                            
                                                            
                        
Int Atom Types                             I   N=          12
           0           0           0           0           0           0
           0           0           0           0           0           0
MM charges                                 R   N=          12
  0.00000000E+00  0.00000000E+00  0.00000000E+00  0.00000000E+00  0.00000000E+00
  0.00000000E+00  0.00000000E+00  0.00000000E+00  0.00000000E+00  0.00000000E+00
  0.00000000E+00  0.00000000E+00
Integer atomic weights                     I   N=          12
          12          12          12          12           1           1
           1           1           1           1           1          35
Real atomic weights                        R   N=          12
  1.20000000E+01  1.20000000E+01  1.20000000E+01  1.20000000E+01  1.00782504E+00
  1.00782504E+00  1.00782504E+00  1.00782504E+00  1.00782504E+00  1.00782504E+00
  1.00782504E+00  3.49688527E+01
Atom fragment info                         I   N=          12
           0           0           0           0           0           0
           0           0           0           0           0           0
Atom residue num                           I   N=          12
           0           0           0           0           0           0
           0           0           0           0           0           0
Nuclear spins                              I   N=          12
           0           0           0           0           1           1
           1           1           1           1           1           3
Nuclear ZEff                               R   N=          12
 -3.60000000E+00 -3.60000000E+00 -3.60000000E+00 -3.60000000E+00 -1.00000000E+00
 -1.00000000E+00 -1.00000000E+00 -1.00000000E+00 -1.00000000E+00 -1.00000000E+00
 -1.00000000E+00 -1.42400000E+01
Nuclear ZNuc                               R   N=          12
  6.00000000E+00  6.00000000E+00  6.00000000E+00  6.00000000E+00  1.00000000E+00
  1.00000000E+00  1.00000000E+00  1.00000000E+00  1.00000000E+00  1.00000000E+00
  1.00000000E+00  1.70000000E+01
Nuclear QMom                               R   N=          12
  0.00000000E+00  0.00000000E+00  0.00000000E+00  0.00000000E+00  0.00000000E+00
  0.00000000E+00  0.00000000E+00  0.00000000E+00  0.00000000E+00  0.00000000E+00
  0.00000000E+00 -8.16500000E+00
Nuclear GFac                               R   N=          12
  0.00000000E+00  0.00000000E+00  0.00000000E+00  0.00000000E+00  2.79284600E+00
  2.79284600E+00  2.79284600E+00  2.79284600E+00  2.79284600E+00  2.79284600E+00
  2.79284600E+00  8.21874000E-01
MicOpt                                     I   N=          12
          -1          -1          -1          -1          -1          -1
          -1          -1          -1          -1          -1          -1
Number of residues                         I                0
Number of secondary structures             I                0
SymInf integers                            I   N=          26
           1           1           1           1           1           0
           0           0           0           0           0           0
           0           0           0           0           0           0
           0           0           0           0           0           0
           0           0
RotTr to input orientation                 R   N=          12
  9.99992906E-01 -1.55418878E-03 -3.43110905E-03  1.53856328E-03  9.99988456E-01
 -4.55201967E-03  3.43814414E-03  4.54670840E-03  9.99983753E-01  1.33154040E-03
  1.75314893E-03  6.72103933E-04
Number of contracted shells                I               72
Number of primitive shells                 I              126
Pure/Cartesian d shells                    I                0
Pure/Cartesian f shells                    I                0
Highest angular momentum                   I                2
Largest degree of contraction              I                6
Shell types                                I   N=          72
           0          -1          -1          -1          -1          -2
           0          -1          -1          -1          -1          -2
           0          -1          -1          -1          -1          -2
           0          -1          -1          -1          -1          -2
           0           0           0           0           1           0
           0           0           0           1           0           0
           0           0           1           0           0           0
           0           1           0           0           0           0
           1           0           0           0           0           1
           0           0           0           0           1           0
           0           0           0           0           0          -1
           1           1           1           1           1          -2
Number of primitives per shell             I   N=          72
           6           3           1           1           1           1
           6           3           1           1           1           1
           6           3           1           1           1           1
           6           3           1           1           1           1
           3           1           1           1           1           3
           1           1           1           1           3           1
           1           1           1           3           1           1
           1           1           3           1           1           1
           1           3           1           1           1           1
           3           1           1           1           1           6
           3           1           1           1           1           1
           5           2           1           1           1           1
Shell to atom map                          I   N=          72
           1           1           1           1           1           1
           2           2           2           2           2           2
           3           3           3           3           3           3
           4           4           4           4           4           4
           5           5           5           5           5           6
           6           6           6           6           7           7
           7           7           7           8           8           8
           8           8           9           9           9           9
           9          10          10          10          10          10
          11          11          11          11          11          12
          12          12          12          12          12          12
          12          12          12          12          12          12
Primitive exponents                        R   N=         126
  4.56324000E+03  6.82024000E+02  1.54973000E+02  4.44553000E+01  1.30290000E+01
  1.82773000E+00  2.09642000E+01  4.80331000E+00  1.45933000E+00  4.83456000E-01
  1.45585000E-01  4.38000000E-02  6.26000000E-01  4.56324000E+03  6.82024000E+02
  1.54973000E+02  4.44553000E+01  1.30290000E+01  1.82773000E+00  2.09642000E+01
  4.80331000E+00  1.45933000E+00  4.83456000E-01  1.45585000E-01  4.38000000E-02
  6.26000000E-01  4.56324000E+03  6.82024000E+02  1.54973000E+02  4.44553000E+01
  1.30290000E+01  1.82773000E+00  2.09642000E+01  4.80331000E+00  1.45933000E+00
  4.83456000E-01  1.45585000E-01  4.38000000E-02  6.26000000E-01  4.56324000E+03
  6.82024000E+02  1.54973000E+02  4.44553000E+01  1.30290000E+01  1.82773000E+00
  2.09642000E+01  4.80331000E+00  1.45933000E+00  4.83456000E-01  1.45585000E-01
  4.38000000E-02  6.26000000E-01  3.38650000E+01  5.09479000E+00  1.15879000E+00
  3.25840000E-01  1.02741000E-01  3.60000000E-02  7.50000000E-01  3.38650000E+01
  5.09479000E+00  1.15879000E+00  3.25840000E-01  1.02741000E-01  3.60000000E-02
  7.50000000E-01  3.38650000E+01  5.09479000E+00  1.15879000E+00  3.25840000E-01
  1.02741000E-01  3.60000000E-02  7.50000000E-01  3.38650000E+01  5.09479000E+00
  1.15879000E+00  3.25840000E-01  1.02741000E-01  3.60000000E-02  7.50000000E-01
  3.38650000E+01  5.09479000E+00  1.15879000E+00  3.25840000E-01  1.02741000E-01
  3.60000000E-02  7.50000000E-01  3.38650000E+01  5.09479000E+00  1.15879000E+00
  3.25840000E-01  1.02741000E-01  3.60000000E-02  7.50000000E-01  3.38650000E+01
  5.09479000E+00  1.15879000E+00  3.25840000E-01  1.02741000E-01  3.60000000E-02
  7.50000000E-01  1.05819000E+05  1.58720000E+04  3.61965000E+03  1.03080000E+03
  3.39908000E+02  1.24538000E+02  1.24538000E+02  4.95135000E+01  2.08056000E+01
  6.58346000E+00  2.56468000E+00  5.59763000E-01  1.83273000E-01  4.83000000E-02
  5.89776000E+02  1.39849000E+02  4.51413000E+01  1.68733000E+01  2.77152000E+00
  6.74110000E+00  2.77152000E+00  1.02387000E+00  3.81368000E-01  1.09437000E-01
  7.50000000E-01
Contraction coefficients                   R   N=         126
  1.96665025E-03  1.52306019E-02  7.61269097E-02  2.60801033E-01  6.16462078E-01
  2.21006028E-01  1.14660081E-01  9.19999648E-01 -3.03068213E-03  1.00000000E+00
  1.00000000E+00  1.00000000E+00  1.00000000E+00  1.96665025E-03  1.52306019E-02
  7.61269097E-02  2.60801033E-01  6.16462078E-01  2.21006028E-01  1.14660081E-01
  9.19999648E-01 -3.03068213E-03  1.00000000E+00  1.00000000E+00  1.00000000E+00
  1.00000000E+00  1.96665025E-03  1.52306019E-02  7.61269097E-02  2.60801033E-01
  6.16462078E-01  2.21006028E-01  1.14660081E-01  9.19999648E-01 -3.03068213E-03
  1.00000000E+00  1.00000000E+00  1.00000000E+00  1.00000000E+00  1.96665025E-03
  1.52306019E-02  7.61269097E-02  2.60801033E-01  6.16462078E-01  2.21006028E-01
  1.14660081E-01  9.19999648E-01 -3.03068213E-03  1.00000000E+00  1.00000000E+00
  1.00000000E+00  1.00000000E+00  2.54938145E-02  1.90373109E-01  8.52161486E-01
  1.00000000E+00  1.00000000E+00  1.00000000E+00  1.00000000E+00  2.54938145E-02
  1.90373109E-01  8.52161486E-01  1.00000000E+00  1.00000000E+00  1.00000000E+00
  1.00000000E+00  2.54938145E-02  1.90373109E-01  8.52161486E-01  1.00000000E+00
  1.00000000E+00  1.00000000E+00  1.00000000E+00  2.54938145E-02  1.90373109E-01
  8.52161486E-01  1.00000000E+00  1.00000000E+00  1.00000000E+00  1.00000000E+00
  2.54938145E-02  1.90373109E-01  8.52161486E-01  1.00000000E+00  1.00000000E+00
  1.00000000E+00  1.00000000E+00  2.54938145E-02  1.90373109E-01  8.52161486E-01
  1.00000000E+00  1.00000000E+00  1.00000000E+00  1.00000000E+00  2.54938145E-02
  1.90373109E-01  8.52161486E-01  1.00000000E+00  1.00000000E+00  1.00000000E+00
  1.00000000E+00  7.38000247E-04  5.71800191E-03  2.94950099E-02  1.17286039E-01
  3.62949121E-01  5.84149195E-01  1.34176973E-01  6.24249876E-01  2.91755942E-01
  1.00000000E+00  1.00000000E+00  1.00000000E+00  1.00000000E+00  1.00000000E+00
  3.66556935E-03  2.83679194E-02  1.24756603E-01  3.39654631E-01  7.47585963E-01
 -1.57224381E+00  9.92388882E-01  1.00000000E+00  1.00000000E+00  1.00000000E+00
  1.00000000E+00
P(S=P) Contraction coefficients            R   N=         126
  0.00000000E+00  0.00000000E+00  0.00000000E+00  0.00000000E+00  0.00000000E+00
  0.00000000E+00  4.02486927E-02  2.37593957E-01  8.15853851E-01  1.00000000E+00
  1.00000000E+00  1.00000000E+00  0.00000000E+00  0.00000000E+00  0.00000000E+00
  0.00000000E+00  0.00000000E+00  0.00000000E+00  0.00000000E+00  4.02486927E-02
  2.37593957E-01  8.15853851E-01  1.00000000E+00  1.00000000E+00  1.00000000E+00
  0.00000000E+00  0.00000000E+00  0.00000000E+00  0.00000000E+00  0.00000000E+00
  0.00000000E+00  0.00000000E+00  4.02486927E-02  2.37593957E-01  8.15853851E-01
  1.00000000E+00  1.00000000E+00  1.00000000E+00  0.00000000E+00  0.00000000E+00
  0.00000000E+00  0.00000000E+00  0.00000000E+00  0.00000000E+00  0.00000000E+00
  4.02486927E-02  2.37593957E-01  8.15853851E-01  1.00000000E+00  1.00000000E+00
  1.00000000E+00  0.00000000E+00  0.00000000E+00  0.00000000E+00  0.00000000E+00
  0.00000000E+00  0.00000000E+00  0.00000000E+00  0.00000000E+00  0.00000000E+00
  0.00000000E+00  0.00000000E+00  0.00000000E+00  0.00000000E+00  0.00000000E+00
  0.00000000E+00  0.00000000E+00  0.00000000E+00  0.00000000E+00  0.00000000E+00
  0.00000000E+00  0.00000000E+00  0.00000000E+00  0.00000000E+00  0.00000000E+00
  0.00000000E+00  0.00000000E+00  0.00000000E+00  0.00000000E+00  0.00000000E+00
  0.00000000E+00  0.00000000E+00  0.00000000E+00  0.00000000E+00  0.00000000E+00
  0.00000000E+00  0.00000000E+00  0.00000000E+00  0.00000000E+00  0.00000000E+00
  0.00000000E+00  0.00000000E+00  0.00000000E+00  0.00000000E+00  0.00000000E+00
  0.00000000E+00  0.00000000E+00  0.00000000E+00  0.00000000E+00  0.00000000E+00
  0.00000000E+00  0.00000000E+00  0.00000000E+00  0.00000000E+00  0.00000000E+00
  0.00000000E+00  0.00000000E+00  0.00000000E+00  0.00000000E+00  0.00000000E+00
  0.00000000E+00  0.00000000E+00  0.00000000E+00  0.00000000E+00  1.00000000E+00
  0.00000000E+00  0.00000000E+00  0.00000000E+00  0.00000000E+00  0.00000000E+00
  0.00000000E+00  0.00000000E+00  0.00000000E+00  0.00000000E+00  0.00000000E+00
  0.00000000E+00
Coordinates of each shell                  R   N=         216
  8.82830120E-01  3.31775187E+00  7.96104576E-02  8.82830120E-01  3.31775187E+00
  7.96104576E-02  8.82830120E-01  3.31775187E+00  7.96104576E-02  8.82830120E-01
  3.31775187E+00  7.96104576E-02  8.82830120E-01  3.31775187E+00  7.96104576E-02
  8.82830120E-01  3.31775187E+00  7.96104576E-02 -6.10384174E-03  6.42971768E-01
 -6.04598972E-01 -6.10384174E-03  6.42971768E-01 -6.04598972E-01 -6.10384174E-03
  6.42971768E-01 -6.04598972E-01 -6.10384174E-03  6.42971768E-01 -6.04598972E-01
 -6.10384174E-03  6.42971768E-01 -6.04598972E-01 -6.10384174E-03  6.42971768E-01
 -6.04598972E-01 -2.29136581E+00 -1.94208258E-01  7.89694841E-01 -2.29136581E+00
 -1.94208258E-01  7.89694841E-01 -2.29136581E+00 -1.94208258E-01  7.89694841E-01
 -2.29136581E+00 -1.94208258E-01  7.89694841E-01 -2.29136581E+00 -1.94208258E-01
  7.89694841E-01 -2.29136581E+00 -1.94208258E-01  7.89694841E-01 -4.39645760E+00
 -9.44670331E-01 -3.05557826E-01 -4.39645760E+00 -9.44670331E-01 -3.05557826E-01
 -4.39645760E+00 -9.44670331E-01 -3.05557826E-01 -4.39645760E+00 -9.44670331E-01
 -3.05557826E-01 -4.39645760E+00 -9.44670331E-01 -3.05557826E-01 -4.39645760E+00
 -9.44670331E-01 -3.05557826E-01 -4.51642915E+00 -1.01484616E+00 -2.35038786E+00
 -4.51642915E+00 -1.01484616E+00 -2.35038786E+00 -4.51642915E+00 -1.01484616E+00
 -2.35038786E+00 -4.51642915E+00 -1.01484616E+00 -2.35038786E+00 -4.51642915E+00
 -1.01484616E+00 -2.35038786E+00  2.60889214E+00  3.85571330E+00 -9.12610536E-01
  2.60889214E+00  3.85571330E+00 -9.12610536E-01  2.60889214E+00  3.85571330E+00
 -9.12610536E-01  2.60889214E+00  3.85571330E+00 -9.12610536E-01  2.60889214E+00
  3.85571330E+00 -9.12610536E-01 -6.01428624E+00 -1.49719725E+00  8.18178791E-01
 -6.01428624E+00 -1.49719725E+00  8.18178791E-01 -6.01428624E+00 -1.49719725E+00
  8.18178791E-01 -6.01428624E+00 -1.49719725E+00  8.18178791E-01 -6.01428624E+00
 -1.49719725E+00  8.18178791E-01 -2.20553411E+00 -1.54335350E-01  2.84158637E+00
 -2.20553411E+00 -1.54335350E-01  2.84158637E+00 -2.20553411E+00 -1.54335350E-01
  2.84158637E+00 -2.20553411E+00 -1.54335350E-01  2.84158637E+00 -2.20553411E+00
 -1.54335350E-01  2.84158637E+00 -1.84213446E-01  6.29490095E-01 -2.66514899E+00
 -1.84213446E-01  6.29490095E-01 -2.66514899E+00 -1.84213446E-01  6.29490095E-01
 -2.66514899E+00 -1.84213446E-01  6.29490095E-01 -2.66514899E+00 -1.84213446E-01
  6.29490095E-01 -2.66514899E+00  1.24220461E+00  3.43447269E+00  2.11009643E+00
  1.24220461E+00  3.43447269E+00  2.11009643E+00  1.24220461E+00  3.43447269E+00
  2.11009643E+00  1.24220461E+00  3.43447269E+00  2.11009643E+00  1.24220461E+00
  3.43447269E+00  2.11009643E+00 -6.15450292E-01  4.67837147E+00 -3.51357622E-01
 -6.15450292E-01  4.67837147E+00 -3.51357622E-01 -6.15450292E-01  4.67837147E+00
 -3.51357622E-01 -6.15450292E-01  4.67837147E+00 -3.51357622E-01 -6.15450292E-01
  4.67837147E+00 -3.51357622E-01  2.62067055E+00 -1.58016112E+00  4.43972011E-02
  2.62067055E+00 -1.58016112E+00  4.43972011E-02  2.62067055E+00 -1.58016112E+00
  4.43972011E-02  2.62067055E+00 -1.58016112E+00  4.43972011E-02  2.62067055E+00
 -1.58016112E+00  4.43972011E-02  2.62067055E+00 -1.58016112E+00  4.43972011E-02
  2.62067055E+00 -1.58016112E+00  4.43972011E-02  2.62067055E+00 -1.58016112E+00
  4.43972011E-02  2.62067055E+00 -1.58016112E+00  4.43972011E-02  2.62067055E+00
 -1.58016112E+00  4.43972011E-02  2.62067055E+00 -1.58016112E+00  4.43972011E-02
  2.62067055E+00 -1.58016112E+00  4.43972011E-02  2.62067055E+00 -1.58016112E+00
  4.43972011E-02
Constraint Structure                       R   N=          36
  8.82830120E-01  3.31775187E+00  7.96104576E-02 -6.10384174E-03  6.42971768E-01
 -6.04598972E-01 -2.29136581E+00 -1.94208258E-01  7.89694841E-01 -4.39645760E+00
 -9.44670331E-01 -3.05557826E-01 -4.51642915E+00 -1.01484616E+00 -2.35038786E+00
  2.60889214E+00  3.85571330E+00 -9.12610536E-01 -6.01428624E+00 -1.49719725E+00
  8.18178791E-01 -2.20553411E+00 -1.54335350E-01  2.84158637E+00 -1.84213446E-01
  6.29490095E-01 -2.66514899E+00  1.24220461E+00  3.43447269E+00  2.11009643E+00
 -6.15450292E-01  4.67837147E+00 -3.51357622E-01  2.62067055E+00 -1.58016112E+00
  4.43972011E-02
Num ILSW                                   I              100
ILSW                                       I   N=         100
           0           0           0           0           2           0
           0           0           0           0         402          -1
           5           0           0           0           0           0
           0           0           0           0           0           0
           1           0           0           0           0           0
           0           0      100000           0          -1           0
           0           0           0           0           0           0
           0           0           0           1           0           0
           0           0           1           0           0           0
           0           0           4          41           0           0
           0           0           5           0           0           0
           0           0           0           0           0           0
           0           0           0           0           0           0
           0           0           0           0           0           0
           0           0           0           0           0           0
           0           0           0           0           0           0
           0           0           0           0
Num RLSW                                   I               41
RLSW                                       R   N=          41
  8.00000000E-01  7.20000000E-01  1.00000000E+00  8.10000000E-01  2.00000000E-01
  0.00000000E+00  0.00000000E+00  1.00000000E+00  0.00000000E+00  0.00000000E+00
  0.00000000E+00  0.00000000E+00  1.00000000E+00  0.00000000E+00  0.00000000E+00
  0.00000000E+00  0.00000000E+00  1.00000000E+00  0.00000000E+00  0.00000000E+00
  0.00000000E+00  0.00000000E+00  1.00000000E+00  0.00000000E+00  0.00000000E+00
  0.00000000E+00  0.00000000E+00  1.00000000E+00  0.00000000E+00  0.00000000E+00
  0.00000000E+00  0.00000000E+00  0.00000000E+00  0.00000000E+00  0.00000000E+00
  0.00000000E+00  0.00000000E+00  0.00000000E+00  1.00000000E+00  1.00000000E+00
  0.00000000E+00
MxBond                                     I                4
NBond                                      I   N=          12
           4           4           3           3           1           1
           1           1           1           1           1           1
IBond                                      I   N=          48
           2           6          10          11           1           3
           9          12           2           4           8           0
           3           5           7           0           4           0
           0           0           1           0           0           0
           4           0           0           0           3           0
           0           0           2           0           0           0
           1           0           0           0           1           0
           0           0           2           0           0           0
RBond                                      R   N=          48
  1.00000000E+00  1.00000000E+00  1.00000000E+00  1.00000000E+00  1.00000000E+00
  1.00000000E+00  1.00000000E+00  1.00000000E+00  1.00000000E+00  2.00000000E+00
  1.00000000E+00  0.00000000E+00  2.00000000E+00  1.00000000E+00  1.00000000E+00
  0.00000000E+00  1.00000000E+00  0.00000000E+00  0.00000000E+00  0.00000000E+00
  1.00000000E+00  0.00000000E+00  0.00000000E+00  0.00000000E+00  1.00000000E+00
  0.00000000E+00  0.00000000E+00  0.00000000E+00  1.00000000E+00  0.00000000E+00
  0.00000000E+00  0.00000000E+00  1.00000000E+00  0.00000000E+00  0.00000000E+00
  0.00000000E+00  1.00000000E+00  0.00000000E+00  0.00000000E+00  0.00000000E+00
  1.00000000E+00  0.00000000E+00  0.00000000E+00  0.00000000E+00  1.00000000E+00
  0.00000000E+00  0.00000000E+00  0.00000000E+00
Virial Ratio                               R      2.002996421110823E+00
SCF Energy                                 R     -6.168937455610483E+02
Total Energy                               R     -6.168937455610483E+02
RMS Density                                R      9.552521147732145E-12
Nuclear derivative order                   I                0
External E-field                           R   N=          35
  0.00000000E+00  0.00000000E+00  0.00000000E+00  0.00000000E+00  0.00000000E+00
  0.00000000E+00  0.00000000E+00  0.00000000E+00  0.00000000E+00  0.00000000E+00
  0.00000000E+00  0.00000000E+00  0.00000000E+00  0.00000000E+00  0.00000000E+00
  0.00000000E+00  0.00000000E+00  0.00000000E+00  0.00000000E+00  0.00000000E+00
  0.00000000E+00  0.00000000E+00  0.00000000E+00  0.00000000E+00  0.00000000E+00
  0.00000000E+00  0.00000000E+00  0.00000000E+00  0.00000000E+00  0.00000000E+00
  0.00000000E+00  0.00000000E+00  0.00000000E+00  0.00000000E+00  0.00000000E+00
IOpCl                                      I                0
IROHF                                      I                0
Alpha Orbital Energies                     R   N=         167
 -1.01534334E+02 -1.02480813E+01 -1.01920194E+01 -1.01819864E+01 -1.01804792E+01
 -9.44872351E+00 -7.21308699E+00 -7.20363854E+00 -7.20346528E+00 -8.67496381E-01
 -7.90311104E-01 -7.41809303E-01 -6.39105264E-01 -5.77469507E-01 -4.86789551E-01
 -4.78828816E-01 -4.44862710E-01 -4.13796723E-01 -4.01241871E-01 -3.73121904E-01
 -3.68805194E-01 -3.07372579E-01 -2.97118052E-01 -2.82920990E-01 -3.18008148E-02
 -7.49956462E-03  6.09163121E-03  7.02075675E-03  2.28053516E-02  2.86519485E-02
  3.85949611E-02  4.14615698E-02  6.31839646E-02  6.44815207E-02  7.28724374E-02
  8.34304498E-02  8.75528781E-02  9.88972699E-02  1.10814593E-01  1.15546791E-01
  1.18987811E-01  1.21103034E-01  1.28586239E-01  1.31193774E-01  1.36338154E-01
  1.42617297E-01  1.49677762E-01  1.56161291E-01  1.61392877E-01  1.64267098E-01
  1.72634394E-01  1.86943408E-01  1.91792332E-01  2.12597904E-01  2.21070464E-01
  2.25629847E-01  2.47437524E-01  2.60545628E-01  2.71415565E-01  2.92249677E-01
  3.44321178E-01  3.59817516E-01  3.93473288E-01  4.27173080E-01  4.30679919E-01
  4.44159934E-01  4.59434152E-01  4.77718202E-01  4.88376764E-01  4.95888430E-01
  5.23615473E-01  5.27701737E-01  5.67681592E-01  5.88145777E-01  5.96856577E-01
  6.22349427E-01  6.35317858E-01  6.54801881E-01  6.59002421E-01  6.66651856E-01
  6.90151917E-01  7.05353462E-01  7.42945744E-01  7.43585771E-01  7.88108157E-01
  8.17047034E-01  8.33549677E-01  8.63380026E-01  8.94175556E-01  9.05770933E-01
  9.44754905E-01  9.59650250E-01  1.00411242E+00  1.02318538E+00  1.06073176E+00
  1.08463586E+00  1.13295943E+00  1.15918015E+00  1.20016668E+00  1.30631961E+00
  1.38518189E+00  1.41381910E+00  1.45105887E+00  1.46176473E+00  1.50281311E+00
  1.53728907E+00  1.56055687E+00  1.59218227E+00  1.60307723E+00  1.63262318E+00
  1.66363857E+00  1.69099646E+00  1.71246005E+00  1.74183405E+00  1.77933124E+00
  1.79172218E+00  1.87723216E+00  1.88126202E+00  1.93658038E+00  1.97718364E+00
  2.00995647E+00  2.08197555E+00  2.11689518E+00  2.16132064E+00  2.20166929E+00
  2.21215788E+00  2.25716143E+00  2.29509464E+00  2.31047032E+00  2.35189147E+00
  2.38703667E+00  2.45325165E+00  2.46946155E+00  2.49954360E+00  2.51583276E+00
  2.56060060E+00  2.57895928E+00  2.58989685E+00  2.59319443E+00  2.64034590E+00
  2.72789037E+00  2.74170742E+00  2.75742988E+00  2.78965900E+00  2.85364804E+00
  2.86561248E+00  2.93857433E+00  3.08583545E+00  3.11509754E+00  3.18558980E+00
  3.39671593E+00  3.52953946E+00  3.71972257E+00  3.78580233E+00  3.79821325E+00
  3.94871486E+00  4.08006644E+00  4.31227978E+00  9.75634256E+00  2.37163142E+01
  2.37918823E+01  2.39419562E+01  2.43054020E+01  2.59346936E+01  2.59637873E+01
  2.64457282E+01  2.15746167E+02
Alpha MO coefficients                      R   N=       27889
  2.00226884E-07 -4.26034742E-07 -2.64168485E-06 -2.34549833E-06 -1.69972334E-06
  5.21296957E-07  1.95448942E-05  1.63716539E-05  1.05187598E-05  1.21920317E-06
  3.25201246E-05  3.78490870E-05  2.64736338E-05 -1.61370170E-03 -1.58796752E-04
  4.96912198E-04  4.23889395E-05  6.93744304E-06 -2.83785186E-06 -6.36321965E-06
  1.29998388E-05  7.53813911E-07  1.50174712E-06 -3.12998480E-06  1.21426355E-05
 -1.18523789E-05  5.27386488E-06 -1.56533684E-05 -1.38312743E-05  1.89140262E-05
 -1.93594299E-05  1.64748454E-04  1.51616069E-04 -9.96589441E-05 -1.27651709E-05
  3.78107681E-03 -4.66204265E-04  4.50643339E-04  8.31967371E-04  1.10783103E-05
 -3.61617030E-06  1.77725886E-07 -3.79920211E-06  7.81274624E-06 -6.28560848E-07
  1.82356838E-06  4.27823251E-06 -2.65437392E-06 -3.78600221E-06 -8.60825056E-06
 -2.50094587E-05  1.00218696E-05  2.36453587E-05  4.67189133E-05  1.94439821E-05
 -1.19323061E-05 -8.05330630E-05 -1.05714978E-03 -1.25405993E-03 -4.01974937E-04
 -1.40902253E-04  7.14737248E-06  4.95234159E-06 -6.04289345E-06  2.35154392E-07
 -4.54300843E-06  3.43328057E-07 -1.01216796E-06 -1.83356664E-06  6.05077040E-07
  8.50467877E-07  1.04792093E-05  8.75739495E-06 -2.32965204E-06  1.43260974E-06
 -6.97758381E-05 -9.87774223E-05 -2.37158989E-05  7.16876028E-05 -1.79205971E-03
 -3.64837595E-04 -1.90951680E-04 -1.17526992E-04 -5.06731196E-06 -1.63584111E-06
 -3.22610849E-06 -2.11632524E-06 -1.75775388E-06 -3.60387318E-06  3.99148357E-05
  6.63129167E-05  6.40892711E-05  6.43692750E-06 -3.07792104E-08  6.90674551E-06
  1.23610016E-05 -8.21071232E-05  7.62612178E-05  2.20260543E-04  8.66892046E-06
  1.34100764E-05 -1.05645629E-05  2.61547213E-06 -2.36373664E-05 -6.17722579E-05
 -1.46763514E-04 -8.26115151E-07 -2.88095100E-07  1.41335544E-06  4.98727864E-06
 -2.92559372E-05  6.88764563E-05  1.60364603E-04 -1.07714052E-05  2.04252638E-06
  1.26897039E-05 -1.21496918E-06 -6.18440201E-05 -1.24223923E-04  1.14744185E-04
 -7.67257408E-06  1.60264606E-06 -1.67960970E-05  9.74035960E-06 -6.18577337E-05
 -2.88940990E-05  7.19370446E-05 -4.50356755E-06  1.22602181E-05  1.52744312E-05
 -7.45714701E-06  3.62956954E-05 -1.44486571E-04 -3.10558640E-04  5.99530646E-08
 -4.30819130E-06 -8.66611341E-07  4.11609679E-01  6.54076181E-01  1.50039168E-02