(R)-3-chloro-1-butene tau=120                                           
SP        RB3LYP                                                      6-311++G(d,p)       
Number of atoms                            I               12
Info1-9                                    I   N=           9
          26          26           0           0           0         110
           1          18        -502
Full Title                                 C   N=           3
(R)-3-chloro-1-butene tau=120       
Route                                      C   N=           7
#P B3LYP/6-311++G** scf(conver=11) int=ultrafine polar=optro
t cphf(rdfreq,conver=11)
Charge                                     I                0
Multiplicity                               I                1
Number of electrons                        I               48
Number of alpha electrons                  I               24
Number of beta electrons                   I               24
Number of basis functions                  I              167
Number of independent functions            I              167
Number of point charges in /Mol/           I                0
Number of translation vectors              I                0
Atomic numbers                             I   N=          12
           6           6           6           6           1           1
           1           1           1           1           1          17
Nuclear charges                            R   N=          12
  6.00000000E+00  6.00000000E+00  6.00000000E+00  6.00000000E+00  1.00000000E+00
  1.00000000E+00  1.00000000E+00  1.00000000E+00  1.00000000E+00  1.00000000E+00
  1.00000000E+00  1.70000000E+01
Current cartesian coordinates              R   N=          36
  8.13499943E-01  3.27033847E+00  4.69349491E-03 -1.77836033E-02  5.89865315E-01
 -6.13575284E-01 -2.36285504E+00 -1.26263570E-01  8.05588056E-01 -4.43915374E+00
 -1.03708133E+00 -2.91809536E-01 -4.49841806E+00 -1.46864649E+00 -2.31671758E+00
  2.56708784E+00  3.74979151E+00 -9.70732353E-01 -6.15026660E+00 -1.38740591E+00
  7.99743015E-01 -2.35304340E+00  2.73956172E-01  2.84286579E+00 -2.98594055E-01
  3.32231102E-01 -2.63603777E+00  1.11698744E+00  3.48141373E+00  2.03719710E+00
 -6.58814260E-01  4.60229092E+00 -5.78646595E-01  2.72428328E+00 -1.51557555E+00
  8.19381179E-02
Number of symbols in /Mol/                 I                0
Force Field                                I                0
Atom Types                                 C   N=          12
                                                            
                                                            
                        
Int Atom Types                             I   N=          12
           0           0           0           0           0           0
           0           0           0           0           0           0
MM charges                                 R   N=          12
  0.00000000E+00  0.00000000E+00  0.00000000E+00  0.00000000E+00  0.00000000E+00
  0.00000000E+00  0.00000000E+00  0.00000000E+00  0.00000000E+00  0.00000000E+00
  0.00000000E+00  0.00000000E+00
Integer atomic weights                     I   N=          12
          12          12          12          12           1           1
           1           1           1           1           1          35
Real atomic weights                        R   N=          12
  1.20000000E+01  1.20000000E+01  1.20000000E+01  1.20000000E+01  1.00782504E+00
  1.00782504E+00  1.00782504E+00  1.00782504E+00  1.00782504E+00  1.00782504E+00
  1.00782504E+00  3.49688527E+01
Atom fragment info                         I   N=          12
           0           0           0           0           0           0
           0           0           0           0           0           0
Atom residue num                           I   N=          12
           0           0           0           0           0           0
           0           0           0           0           0           0
Nuclear spins                              I   N=          12
           0           0           0           0           1           1
           1           1           1           1           1           3
Nuclear ZEff                               R   N=          12
 -3.60000000E+00 -3.60000000E+00 -3.60000000E+00 -3.60000000E+00 -1.00000000E+00
 -1.00000000E+00 -1.00000000E+00 -1.00000000E+00 -1.00000000E+00 -1.00000000E+00
 -1.00000000E+00 -1.42400000E+01
Nuclear ZNuc                               R   N=          12
  6.00000000E+00  6.00000000E+00  6.00000000E+00  6.00000000E+00  1.00000000E+00
  1.00000000E+00  1.00000000E+00  1.00000000E+00  1.00000000E+00  1.00000000E+00
  1.00000000E+00  1.70000000E+01
Nuclear QMom                               R   N=          12
  0.00000000E+00  0.00000000E+00  0.00000000E+00  0.00000000E+00  0.00000000E+00
  0.00000000E+00  0.00000000E+00  0.00000000E+00  0.00000000E+00  0.00000000E+00
  0.00000000E+00 -8.16500000E+00
Nuclear GFac                               R   N=          12
  0.00000000E+00  0.00000000E+00  0.00000000E+00  0.00000000E+00  2.79284600E+00
  2.79284600E+00  2.79284600E+00  2.79284600E+00  2.79284600E+00  2.79284600E+00
  2.79284600E+00  8.21874000E-01
MicOpt                                     I   N=          12
          -1          -1          -1          -1          -1          -1
          -1          -1          -1          -1          -1          -1
Number of residues                         I                0
Number of secondary structures             I                0
SymInf integers                            I   N=          26
           1           1           1           1           1           0
           0           0           0           0           0           0
           0           0           0           0           0           0
           0           0           0           0           0           0
           0           0
RotTr to input orientation                 R   N=          12
  9.99774699E-01 -2.05192800E-02 -5.43237138E-03  2.06801715E-02  9.99291857E-01
  3.14342938E-02  4.78351541E-03 -3.15395540E-02  9.99491058E-01 -3.95719872E-03
  1.94304397E-04  1.54691367E-03
Number of contracted shells                I               72
Number of primitive shells                 I              126
Pure/Cartesian d shells                    I                0
Pure/Cartesian f shells                    I                0
Highest angular momentum                   I                2
Largest degree of contraction              I                6
Shell types                                I   N=          72
           0          -1          -1          -1          -1          -2
           0          -1          -1          -1          -1          -2
           0          -1          -1          -1          -1          -2
           0          -1          -1          -1          -1          -2
           0           0           0           0           1           0
           0           0           0           1           0           0
           0           0           1           0           0           0
           0           1           0           0           0           0
           1           0           0           0           0           1
           0           0           0           0           1           0
           0           0           0           0           0          -1
           1           1           1           1           1          -2
Number of primitives per shell             I   N=          72
           6           3           1           1           1           1
           6           3           1           1           1           1
           6           3           1           1           1           1
           6           3           1           1           1           1
           3           1           1           1           1           3
           1           1           1           1           3           1
           1           1           1           3           1           1
           1           1           3           1           1           1
           1           3           1           1           1           1
           3           1           1           1           1           6
           3           1           1           1           1           1
           5           2           1           1           1           1
Shell to atom map                          I   N=          72
           1           1           1           1           1           1
           2           2           2           2           2           2
           3           3           3           3           3           3
           4           4           4           4           4           4
           5           5           5           5           5           6
           6           6           6           6           7           7
           7           7           7           8           8           8
           8           8           9           9           9           9
           9          10          10          10          10          10
          11          11          11          11          11          12
          12          12          12          12          12          12
          12          12          12          12          12          12
Primitive exponents                        R   N=         126
  4.56324000E+03  6.82024000E+02  1.54973000E+02  4.44553000E+01  1.30290000E+01
  1.82773000E+00  2.09642000E+01  4.80331000E+00  1.45933000E+00  4.83456000E-01
  1.45585000E-01  4.38000000E-02  6.26000000E-01  4.56324000E+03  6.82024000E+02
  1.54973000E+02  4.44553000E+01  1.30290000E+01  1.82773000E+00  2.09642000E+01
  4.80331000E+00  1.45933000E+00  4.83456000E-01  1.45585000E-01  4.38000000E-02
  6.26000000E-01  4.56324000E+03  6.82024000E+02  1.54973000E+02  4.44553000E+01
  1.30290000E+01  1.82773000E+00  2.09642000E+01  4.80331000E+00  1.45933000E+00
  4.83456000E-01  1.45585000E-01  4.38000000E-02  6.26000000E-01  4.56324000E+03
  6.82024000E+02  1.54973000E+02  4.44553000E+01  1.30290000E+01  1.82773000E+00
  2.09642000E+01  4.80331000E+00  1.45933000E+00  4.83456000E-01  1.45585000E-01
  4.38000000E-02  6.26000000E-01  3.38650000E+01  5.09479000E+00  1.15879000E+00
  3.25840000E-01  1.02741000E-01  3.60000000E-02  7.50000000E-01  3.38650000E+01
  5.09479000E+00  1.15879000E+00  3.25840000E-01  1.02741000E-01  3.60000000E-02
  7.50000000E-01  3.38650000E+01  5.09479000E+00  1.15879000E+00  3.25840000E-01
  1.02741000E-01  3.60000000E-02  7.50000000E-01  3.38650000E+01  5.09479000E+00
  1.15879000E+00  3.25840000E-01  1.02741000E-01  3.60000000E-02  7.50000000E-01
  3.38650000E+01  5.09479000E+00  1.15879000E+00  3.25840000E-01  1.02741000E-01
  3.60000000E-02  7.50000000E-01  3.38650000E+01  5.09479000E+00  1.15879000E+00
  3.25840000E-01  1.02741000E-01  3.60000000E-02  7.50000000E-01  3.38650000E+01
  5.09479000E+00  1.15879000E+00  3.25840000E-01  1.02741000E-01  3.60000000E-02
  7.50000000E-01  1.05819000E+05  1.58720000E+04  3.61965000E+03  1.03080000E+03
  3.39908000E+02  1.24538000E+02  1.24538000E+02  4.95135000E+01  2.08056000E+01
  6.58346000E+00  2.56468000E+00  5.59763000E-01  1.83273000E-01  4.83000000E-02
  5.89776000E+02  1.39849000E+02  4.51413000E+01  1.68733000E+01  2.77152000E+00
  6.74110000E+00  2.77152000E+00  1.02387000E+00  3.81368000E-01  1.09437000E-01
  7.50000000E-01
Contraction coefficients                   R   N=         126
  1.96665025E-03  1.52306019E-02  7.61269097E-02  2.60801033E-01  6.16462078E-01
  2.21006028E-01  1.14660081E-01  9.19999648E-01 -3.03068213E-03  1.00000000E+00
  1.00000000E+00  1.00000000E+00  1.00000000E+00  1.96665025E-03  1.52306019E-02
  7.61269097E-02  2.60801033E-01  6.16462078E-01  2.21006028E-01  1.14660081E-01
  9.19999648E-01 -3.03068213E-03  1.00000000E+00  1.00000000E+00  1.00000000E+00
  1.00000000E+00  1.96665025E-03  1.52306019E-02  7.61269097E-02  2.60801033E-01
  6.16462078E-01  2.21006028E-01  1.14660081E-01  9.19999648E-01 -3.03068213E-03
  1.00000000E+00  1.00000000E+00  1.00000000E+00  1.00000000E+00  1.96665025E-03
  1.52306019E-02  7.61269097E-02  2.60801033E-01  6.16462078E-01  2.21006028E-01
  1.14660081E-01  9.19999648E-01 -3.03068213E-03  1.00000000E+00  1.00000000E+00
  1.00000000E+00  1.00000000E+00  2.54938145E-02  1.90373109E-01  8.52161486E-01
  1.00000000E+00  1.00000000E+00  1.00000000E+00  1.00000000E+00  2.54938145E-02
  1.90373109E-01  8.52161486E-01  1.00000000E+00  1.00000000E+00  1.00000000E+00
  1.00000000E+00  2.54938145E-02  1.90373109E-01  8.52161486E-01  1.00000000E+00
  1.00000000E+00  1.00000000E+00  1.00000000E+00  2.54938145E-02  1.90373109E-01
  8.52161486E-01  1.00000000E+00  1.00000000E+00  1.00000000E+00  1.00000000E+00
  2.54938145E-02  1.90373109E-01  8.52161486E-01  1.00000000E+00  1.00000000E+00
  1.00000000E+00  1.00000000E+00  2.54938145E-02  1.90373109E-01  8.52161486E-01
  1.00000000E+00  1.00000000E+00  1.00000000E+00  1.00000000E+00  2.54938145E-02
  1.90373109E-01  8.52161486E-01  1.00000000E+00  1.00000000E+00  1.00000000E+00
  1.00000000E+00  7.38000247E-04  5.71800191E-03  2.94950099E-02  1.17286039E-01
  3.62949121E-01  5.84149195E-01  1.34176973E-01  6.24249876E-01  2.91755942E-01
  1.00000000E+00  1.00000000E+00  1.00000000E+00  1.00000000E+00  1.00000000E+00
  3.66556935E-03  2.83679194E-02  1.24756603E-01  3.39654631E-01  7.47585963E-01
 -1.57224381E+00  9.92388882E-01  1.00000000E+00  1.00000000E+00  1.00000000E+00
  1.00000000E+00
P(S=P) Contraction coefficients            R   N=         126
  0.00000000E+00  0.00000000E+00  0.00000000E+00  0.00000000E+00  0.00000000E+00
  0.00000000E+00  4.02486927E-02  2.37593957E-01  8.15853851E-01  1.00000000E+00
  1.00000000E+00  1.00000000E+00  0.00000000E+00  0.00000000E+00  0.00000000E+00
  0.00000000E+00  0.00000000E+00  0.00000000E+00  0.00000000E+00  4.02486927E-02
  2.37593957E-01  8.15853851E-01  1.00000000E+00  1.00000000E+00  1.00000000E+00
  0.00000000E+00  0.00000000E+00  0.00000000E+00  0.00000000E+00  0.00000000E+00
  0.00000000E+00  0.00000000E+00  4.02486927E-02  2.37593957E-01  8.15853851E-01
  1.00000000E+00  1.00000000E+00  1.00000000E+00  0.00000000E+00  0.00000000E+00
  0.00000000E+00  0.00000000E+00  0.00000000E+00  0.00000000E+00  0.00000000E+00
  4.02486927E-02  2.37593957E-01  8.15853851E-01  1.00000000E+00  1.00000000E+00
  1.00000000E+00  0.00000000E+00  0.00000000E+00  0.00000000E+00  0.00000000E+00
  0.00000000E+00  0.00000000E+00  0.00000000E+00  0.00000000E+00  0.00000000E+00
  0.00000000E+00  0.00000000E+00  0.00000000E+00  0.00000000E+00  0.00000000E+00
  0.00000000E+00  0.00000000E+00  0.00000000E+00  0.00000000E+00  0.00000000E+00
  0.00000000E+00  0.00000000E+00  0.00000000E+00  0.00000000E+00  0.00000000E+00
  0.00000000E+00  0.00000000E+00  0.00000000E+00  0.00000000E+00  0.00000000E+00
  0.00000000E+00  0.00000000E+00  0.00000000E+00  0.00000000E+00  0.00000000E+00
  0.00000000E+00  0.00000000E+00  0.00000000E+00  0.00000000E+00  0.00000000E+00
  0.00000000E+00  0.00000000E+00  0.00000000E+00  0.00000000E+00  0.00000000E+00
  0.00000000E+00  0.00000000E+00  0.00000000E+00  0.00000000E+00  0.00000000E+00
  0.00000000E+00  0.00000000E+00  0.00000000E+00  0.00000000E+00  0.00000000E+00
  0.00000000E+00  0.00000000E+00  0.00000000E+00  0.00000000E+00  0.00000000E+00
  0.00000000E+00  0.00000000E+00  0.00000000E+00  0.00000000E+00  1.00000000E+00
  0.00000000E+00  0.00000000E+00  0.00000000E+00  0.00000000E+00  0.00000000E+00
  0.00000000E+00  0.00000000E+00  0.00000000E+00  0.00000000E+00  0.00000000E+00
  0.00000000E+00
Coordinates of each shell                  R   N=         216
  8.13499943E-01  3.27033847E+00  4.69349491E-03  8.13499943E-01  3.27033847E+00
  4.69349491E-03  8.13499943E-01  3.27033847E+00  4.69349491E-03  8.13499943E-01
  3.27033847E+00  4.69349491E-03  8.13499943E-01  3.27033847E+00  4.69349491E-03
  8.13499943E-01  3.27033847E+00  4.69349491E-03 -1.77836033E-02  5.89865315E-01
 -6.13575284E-01 -1.77836033E-02  5.89865315E-01 -6.13575284E-01 -1.77836033E-02
  5.89865315E-01 -6.13575284E-01 -1.77836033E-02  5.89865315E-01 -6.13575284E-01
 -1.77836033E-02  5.89865315E-01 -6.13575284E-01 -1.77836033E-02  5.89865315E-01
 -6.13575284E-01 -2.36285504E+00 -1.26263570E-01  8.05588056E-01 -2.36285504E+00
 -1.26263570E-01  8.05588056E-01 -2.36285504E+00 -1.26263570E-01  8.05588056E-01
 -2.36285504E+00 -1.26263570E-01  8.05588056E-01 -2.36285504E+00 -1.26263570E-01
  8.05588056E-01 -2.36285504E+00 -1.26263570E-01  8.05588056E-01 -4.43915374E+00
 -1.03708133E+00 -2.91809536E-01 -4.43915374E+00 -1.03708133E+00 -2.91809536E-01
 -4.43915374E+00 -1.03708133E+00 -2.91809536E-01 -4.43915374E+00 -1.03708133E+00
 -2.91809536E-01 -4.43915374E+00 -1.03708133E+00 -2.91809536E-01 -4.43915374E+00
 -1.03708133E+00 -2.91809536E-01 -4.49841806E+00 -1.46864649E+00 -2.31671758E+00
 -4.49841806E+00 -1.46864649E+00 -2.31671758E+00 -4.49841806E+00 -1.46864649E+00
 -2.31671758E+00 -4.49841806E+00 -1.46864649E+00 -2.31671758E+00 -4.49841806E+00
 -1.46864649E+00 -2.31671758E+00  2.56708784E+00  3.74979151E+00 -9.70732353E-01
  2.56708784E+00  3.74979151E+00 -9.70732353E-01  2.56708784E+00  3.74979151E+00
 -9.70732353E-01  2.56708784E+00  3.74979151E+00 -9.70732353E-01  2.56708784E+00
  3.74979151E+00 -9.70732353E-01 -6.15026660E+00 -1.38740591E+00  7.99743015E-01
 -6.15026660E+00 -1.38740591E+00  7.99743015E-01 -6.15026660E+00 -1.38740591E+00
  7.99743015E-01 -6.15026660E+00 -1.38740591E+00  7.99743015E-01 -6.15026660E+00
 -1.38740591E+00  7.99743015E-01 -2.35304340E+00  2.73956172E-01  2.84286579E+00
 -2.35304340E+00  2.73956172E-01  2.84286579E+00 -2.35304340E+00  2.73956172E-01
  2.84286579E+00 -2.35304340E+00  2.73956172E-01  2.84286579E+00 -2.35304340E+00
  2.73956172E-01  2.84286579E+00 -2.98594055E-01  3.32231102E-01 -2.63603777E+00
 -2.98594055E-01  3.32231102E-01 -2.63603777E+00 -2.98594055E-01  3.32231102E-01
 -2.63603777E+00 -2.98594055E-01  3.32231102E-01 -2.63603777E+00 -2.98594055E-01
  3.32231102E-01 -2.63603777E+00  1.11698744E+00  3.48141373E+00  2.03719710E+00
  1.11698744E+00  3.48141373E+00  2.03719710E+00  1.11698744E+00  3.48141373E+00
  2.03719710E+00  1.11698744E+00  3.48141373E+00  2.03719710E+00  1.11698744E+00
  3.48141373E+00  2.03719710E+00 -6.58814260E-01  4.60229092E+00 -5.78646595E-01
 -6.58814260E-01  4.60229092E+00 -5.78646595E-01 -6.58814260E-01  4.60229092E+00
 -5.78646595E-01 -6.58814260E-01  4.60229092E+00 -5.78646595E-01 -6.58814260E-01
  4.60229092E+00 -5.78646595E-01  2.72428328E+00 -1.51557555E+00  8.19381179E-02
  2.72428328E+00 -1.51557555E+00  8.19381179E-02  2.72428328E+00 -1.51557555E+00
  8.19381179E-02  2.72428328E+00 -1.51557555E+00  8.19381179E-02  2.72428328E+00
 -1.51557555E+00  8.19381179E-02  2.72428328E+00 -1.51557555E+00  8.19381179E-02
  2.72428328E+00 -1.51557555E+00  8.19381179E-02  2.72428328E+00 -1.51557555E+00
  8.19381179E-02  2.72428328E+00 -1.51557555E+00  8.19381179E-02  2.72428328E+00
 -1.51557555E+00  8.19381179E-02  2.72428328E+00 -1.51557555E+00  8.19381179E-02
  2.72428328E+00 -1.51557555E+00  8.19381179E-02  2.72428328E+00 -1.51557555E+00
  8.19381179E-02
Constraint Structure                       R   N=          36
  8.13499943E-01  3.27033847E+00  4.69349491E-03 -1.77836033E-02  5.89865315E-01
 -6.13575284E-01 -2.36285504E+00 -1.26263570E-01  8.05588056E-01 -4.43915374E+00
 -1.03708133E+00 -2.91809536E-01 -4.49841806E+00 -1.46864649E+00 -2.31671758E+00
  2.56708784E+00  3.74979151E+00 -9.70732353E-01 -6.15026660E+00 -1.38740591E+00
  7.99743015E-01 -2.35304340E+00  2.73956172E-01  2.84286579E+00 -2.98594055E-01
  3.32231102E-01 -2.63603777E+00  1.11698744E+00  3.48141373E+00  2.03719710E+00
 -6.58814260E-01  4.60229092E+00 -5.78646595E-01  2.72428328E+00 -1.51557555E+00
  8.19381179E-02
Num ILSW                                   I              100
ILSW                                       I   N=         100
           0           0           0           0           2           0
           0           0           0           0         402          -1
           5           0           0           0           0           0
           0           0           0           0           0           0
           1           0           0           0           0           0
           0           0      100000           0          -1           0
           0           0           0           0           0           0
           0           0           0           1           0           0
           0           0           1           0           0           0
           0           0           4          41           0           0
           0           0           5           0           0           0
           0           0           0           0           0           0
           0           0           0           0           0           0
           0           0           0           0           0           0
           0           0           0           0           0           0
           0           0           0           0           0           0
           0           0           0           0
Num RLSW                                   I               41
RLSW                                       R   N=          41
  8.00000000E-01  7.20000000E-01  1.00000000E+00  8.10000000E-01  2.00000000E-01
  0.00000000E+00  0.00000000E+00  1.00000000E+00  0.00000000E+00  0.00000000E+00
  0.00000000E+00  0.00000000E+00  1.00000000E+00  0.00000000E+00  0.00000000E+00
  0.00000000E+00  0.00000000E+00  1.00000000E+00  0.00000000E+00  0.00000000E+00
  0.00000000E+00  0.00000000E+00  1.00000000E+00  0.00000000E+00  0.00000000E+00
  0.00000000E+00  0.00000000E+00  1.00000000E+00  0.00000000E+00  0.00000000E+00
  0.00000000E+00  0.00000000E+00  0.00000000E+00  0.00000000E+00  0.00000000E+00
  0.00000000E+00  0.00000000E+00  0.00000000E+00  1.00000000E+00  1.00000000E+00
  0.00000000E+00
MxBond                                     I                4
NBond                                      I   N=          12
           4           4           3           3           1           1
           1           1           1           1           1           1
IBond                                      I   N=          48
           2           6          10          11           1           3
           9          12           2           4           8           0
           3           5           7           0           4           0
           0           0           1           0           0           0
           4           0           0           0           3           0
           0           0           2           0           0           0
           1           0           0           0           1           0
           0           0           2           0           0           0
RBond                                      R   N=          48
  1.00000000E+00  1.00000000E+00  1.00000000E+00  1.00000000E+00  1.00000000E+00
  1.00000000E+00  1.00000000E+00  1.00000000E+00  1.00000000E+00  2.00000000E+00
  1.00000000E+00  0.00000000E+00  2.00000000E+00  1.00000000E+00  1.00000000E+00
  0.00000000E+00  1.00000000E+00  0.00000000E+00  0.00000000E+00  0.00000000E+00
  1.00000000E+00  0.00000000E+00  0.00000000E+00  0.00000000E+00  1.00000000E+00
  0.00000000E+00  0.00000000E+00  0.00000000E+00  1.00000000E+00  0.00000000E+00
  0.00000000E+00  0.00000000E+00  1.00000000E+00  0.00000000E+00  0.00000000E+00
  0.00000000E+00  1.00000000E+00  0.00000000E+00  0.00000000E+00  0.00000000E+00
  1.00000000E+00  0.00000000E+00  0.00000000E+00  0.00000000E+00  1.00000000E+00
  0.00000000E+00  0.00000000E+00  0.00000000E+00
Virial Ratio                               R      2.003161565076584E+00
SCF Energy                                 R     -6.168943873900088E+02
Total Energy                               R     -6.168943873900088E+02
RMS Density                                R      9.525438084129538E-12
Nuclear derivative order                   I                0
External E-field                           R   N=          35
  0.00000000E+00  0.00000000E+00  0.00000000E+00  0.00000000E+00  0.00000000E+00
  0.00000000E+00  0.00000000E+00  0.00000000E+00  0.00000000E+00  0.00000000E+00
  0.00000000E+00  0.00000000E+00  0.00000000E+00  0.00000000E+00  0.00000000E+00
  0.00000000E+00  0.00000000E+00  0.00000000E+00  0.00000000E+00  0.00000000E+00
  0.00000000E+00  0.00000000E+00  0.00000000E+00  0.00000000E+00  0.00000000E+00
  0.00000000E+00  0.00000000E+00  0.00000000E+00  0.00000000E+00  0.00000000E+00
  0.00000000E+00  0.00000000E+00  0.00000000E+00  0.00000000E+00  0.00000000E+00
IOpCl                                      I                0
IROHF                                      I                0
Alpha Orbital Energies                     R   N=         167
 -1.01533413E+02 -1.02481778E+01 -1.01974153E+01 -1.01887312E+01 -1.01804137E+01
 -9.44761725E+00 -7.21199710E+00 -7.20254963E+00 -7.20237770E+00 -8.64331084E-01
 -7.88455446E-01 -7.41431053E-01 -6.38935314E-01 -5.77026715E-01 -4.85153668E-01
 -4.75816070E-01 -4.46337764E-01 -4.11673634E-01 -4.01695673E-01 -3.75959203E-01
 -3.67762742E-01 -3.03418482E-01 -2.97453610E-01 -2.83905605E-01 -3.76295623E-02
 -8.05322623E-03  5.72386304E-03  6.75155281E-03  2.09951144E-02  2.95423085E-02
  3.88807047E-02  4.03199603E-02  6.35760733E-02  6.48296950E-02  7.31911935E-02
  8.27097089E-02  8.78254545E-02  9.74331057E-02  1.10987425E-01  1.15921819E-01
  1.17859106E-01  1.22912954E-01  1.28419589E-01  1.30371410E-01  1.36618716E-01
  1.42101196E-01  1.50901856E-01  1.55403742E-01  1.60059669E-01  1.63942637E-01
  1.70952126E-01  1.86620045E-01  1.91133572E-01  2.11132960E-01  2.23838396E-01
  2.25549477E-01  2.42200601E-01  2.54311581E-01  2.67649587E-01  2.95957289E-01
  3.36338844E-01  3.51985750E-01  3.85680835E-01  4.26244046E-01  4.34305569E-01
  4.46264097E-01  4.60033701E-01  4.71958109E-01  4.88933120E-01  4.94254496E-01
  5.23079548E-01  5.27414234E-01  5.64544525E-01  5.84845589E-01  6.03365401E-01
  6.21769084E-01  6.35750558E-01  6.46148473E-01  6.56398802E-01  6.63004027E-01
  6.89885332E-01  6.98212562E-01  7.32569628E-01  7.38162506E-01  7.76042998E-01
  8.15331341E-01  8.30138365E-01  8.69763568E-01  8.91250711E-01  9.13562039E-01
  9.39091256E-01  9.54264931E-01  1.00035396E+00  1.03199509E+00  1.05535951E+00
  1.08196334E+00  1.13202290E+00  1.17826575E+00  1.18708837E+00  1.29783472E+00
  1.38911386E+00  1.42129800E+00  1.45275088E+00  1.46123713E+00  1.50546754E+00
  1.53313602E+00  1.55332245E+00  1.58096179E+00  1.59628907E+00  1.62791240E+00
  1.65653502E+00  1.68793905E+00  1.70916216E+00  1.72628043E+00  1.77110003E+00
  1.77953200E+00  1.86728946E+00  1.88913437E+00  1.93012954E+00  1.98518831E+00
  2.01777419E+00  2.06925785E+00  2.11217671E+00  2.17037589E+00  2.18548840E+00
  2.20047794E+00  2.24812850E+00  2.29392903E+00  2.30953618E+00  2.35680446E+00
  2.36794218E+00  2.44282736E+00  2.45525884E+00  2.49267614E+00  2.53538119E+00
  2.56619882E+00  2.57102022E+00  2.58482161E+00  2.60388359E+00  2.64995563E+00
  2.72227749E+00  2.73318393E+00  2.73723565E+00  2.77099516E+00  2.84557344E+00
  2.86440081E+00  2.93003583E+00  3.06803268E+00  3.07716575E+00  3.17335190E+00
  3.39832456E+00  3.49507750E+00  3.69920158E+00  3.79529180E+00  3.79565711E+00
  3.93271538E+00  4.12310372E+00  4.27721742E+00  9.75365873E+00  2.37056799E+01
  2.37827359E+01  2.39454588E+01  2.42355091E+01  2.59318577E+01  2.59662567E+01
  2.64443417E+01  2.15743466E+02
Alpha MO coefficients                      R   N=       27889
  4.59134031E-08 -2.04043451E-08 -2.74975131E-06 -1.53433707E-06 -1.18368705E-06
 -4.52355199E-06  1.83886991E-05  1.42912309E-05  1.04201095E-05  2.60608676E-05
  2.12475786E-05  2.10953934E-05  2.94334683E-05 -1.66696956E-03 -1.96788107E-04
  5.18325641E-04  2.87628790E-05  6.71726813E-06 -2.69647216E-06 -2.64765574E-06
  1.14772260E-05  6.35783107E-07  1.37906055E-06 -2.84120797E-06  1.26234369E-05
 -9.68354243E-06  4.67218574E-06 -1.66176587E-05 -1.67841936E-05  1.37769982E-05
 -1.55140486E-05  1.55962612E-04  1.44222171E-04 -1.19231727E-04  1.25077074E-05
  3.78092213E-03 -5.15905938E-04  5.28696396E-04  8.36141856E-04  8.04533528E-06
 -4.24079865E-06  7.10531414E-07 -2.38362337E-06  5.43791516E-06 -4.97069152E-07
  1.49780813E-06  5.65251254E-06 -3.16701001E-06 -4.08674543E-06 -2.95350011E-06
 -2.68369852E-05  1.18403527E-05  2.27957712E-05  1.88214638E-05 -1.80315721E-05
 -2.19439332E-05 -9.84590992E-05 -1.30444127E-03 -1.19081856E-03 -4.46724655E-04
 -1.17299352E-04  7.15140986E-06  5.97376590E-06 -4.03085132E-06 -3.28205992E-06
 -4.13375849E-07  2.91262087E-07 -8.63461316E-07 -1.48510443E-06  7.78959561E-07
  9.03621643E-07  9.36892343E-06  5.69980958E-06 -2.24754872E-06  6.53532764E-07
 -8.82453699E-05 -1.01669721E-04 -1.91189192E-05  6.48851984E-05 -1.57688444E-03
 -3.16600073E-04 -1.70783567E-04 -1.05247655E-04 -3.92255595E-06 -2.00179934E-06
 -5.50771741E-06 -1.32251442E-06 -1.66052580E-06 -3.69526527E-06  3.87023307E-05
  6.07279220E-05  5.00388065E-05  6.16060794E-06  1.91710150E-06  6.23480746E-06
  1.12073857E-05 -7.93023379E-05  9.10378515E-05  2.43573505E-04  6.68519142E-06
  1.21481977E-05 -9.77098783E-06  2.79720114E-06 -2.49286174E-05 -5.68043518E-05
 -1.31510214E-04 -2.26613765E-06  3.76118446E-07  1.38591806E-06  4.10469535E-06
 -1.48939256E-05  9.78702629E-05  1.78387500E-04 -7.46275937E-06  2.46481436E-06
  9.58045436E-06 -2.00495372E-06 -4.88796655E-05 -1.10197609E-04  1.30602442E-04
 -6.23713349E-06  1.25558561E-06 -1.24574282E-05  1.14933184E-05 -7.15055706E-05
 -1.92221141E-05  6.71331547E-05 -4.73061910E-06  1.37549759E-05  1.55237754E-05
 -7.56980688E-06  3.65991934E-05 -1.46843588E-04 -3.33259712E-04  9.67287355E-07
 -4.43400137E-06 -1.74993609E-06  4.11609756E-01  6.54076364E-01  1.50028935E-02