(R)-3-chloro-1-butene tau=120                                           
SP        RB3LYP                                                      6-311++G(d,p)       
Number of atoms                            I               12
Info1-9                                    I   N=           9
          26          26           0           0           0         110
           1          18        -502
Full Title                                 C   N=           3
(R)-3-chloro-1-butene tau=120       
Route                                      C   N=           7
#P B3LYP/6-311++G** scf(conver=11) int=ultrafine polar=optro
t cphf(rdfreq,conver=11)
Charge                                     I                0
Multiplicity                               I                1
Number of electrons                        I               48
Number of alpha electrons                  I               24
Number of beta electrons                   I               24
Number of basis functions                  I              167
Number of independent functions            I              167
Number of point charges in /Mol/           I                0
Number of translation vectors              I                0
Atomic numbers                             I   N=          12
           6           6           6           6           1           1
           1           1           1           1           1          17
Nuclear charges                            R   N=          12
  6.00000000E+00  6.00000000E+00  6.00000000E+00  6.00000000E+00  1.00000000E+00
  1.00000000E+00  1.00000000E+00  1.00000000E+00  1.00000000E+00  1.00000000E+00
  1.00000000E+00  1.70000000E+01
Current cartesian coordinates              R   N=          36
  8.86328612E-01  3.31331743E+00  6.01129739E-02  5.75446679E-03  6.50637316E-01
 -6.04909258E-01 -2.28075157E+00 -1.82590311E-01  8.30807675E-01 -4.41591670E+00
 -9.41510239E-01 -3.02373507E-01 -4.66997488E+00 -1.06462385E+00 -2.33592184E+00
  2.60831675E+00  3.83148623E+00 -9.49923384E-01 -6.03410872E+00 -1.48708403E+00
  8.32092062E-01 -1.96478043E+00 -5.01256020E-02  2.86614202E+00 -2.79850313E-01
  5.63565761E-01 -2.64352773E+00  1.27834838E+00  3.44666753E+00  2.08384038E+00
 -6.02572514E-01  4.67870581E+00 -3.83269243E-01  2.61718429E+00 -1.58574806E+00
  3.69847312E-02
Number of symbols in /Mol/                 I                0
Force Field                                I                0
Atom Types                                 C   N=          12
                                                            
                                                            
                        
Int Atom Types                             I   N=          12
           0           0           0           0           0           0
           0           0           0           0           0           0
MM charges                                 R   N=          12
  0.00000000E+00  0.00000000E+00  0.00000000E+00  0.00000000E+00  0.00000000E+00
  0.00000000E+00  0.00000000E+00  0.00000000E+00  0.00000000E+00  0.00000000E+00
  0.00000000E+00  0.00000000E+00
Integer atomic weights                     I   N=          12
          12          12          12          12           1           1
           1           1           1           1           1          35
Real atomic weights                        R   N=          12
  1.20000000E+01  1.20000000E+01  1.20000000E+01  1.20000000E+01  1.00782504E+00
  1.00782504E+00  1.00782504E+00  1.00782504E+00  1.00782504E+00  1.00782504E+00
  1.00782504E+00  3.49688527E+01
Atom fragment info                         I   N=          12
           0           0           0           0           0           0
           0           0           0           0           0           0
Atom residue num                           I   N=          12
           0           0           0           0           0           0
           0           0           0           0           0           0
Nuclear spins                              I   N=          12
           0           0           0           0           1           1
           1           1           1           1           1           3
Nuclear ZEff                               R   N=          12
 -3.60000000E+00 -3.60000000E+00 -3.60000000E+00 -3.60000000E+00 -1.00000000E+00
 -1.00000000E+00 -1.00000000E+00 -1.00000000E+00 -1.00000000E+00 -1.00000000E+00
 -1.00000000E+00 -1.42400000E+01
Nuclear ZNuc                               R   N=          12
  6.00000000E+00  6.00000000E+00  6.00000000E+00  6.00000000E+00  1.00000000E+00
  1.00000000E+00  1.00000000E+00  1.00000000E+00  1.00000000E+00  1.00000000E+00
  1.00000000E+00  1.70000000E+01
Nuclear QMom                               R   N=          12
  0.00000000E+00  0.00000000E+00  0.00000000E+00  0.00000000E+00  0.00000000E+00
  0.00000000E+00  0.00000000E+00  0.00000000E+00  0.00000000E+00  0.00000000E+00
  0.00000000E+00 -8.16500000E+00
Nuclear GFac                               R   N=          12
  0.00000000E+00  0.00000000E+00  0.00000000E+00  0.00000000E+00  2.79284600E+00
  2.79284600E+00  2.79284600E+00  2.79284600E+00  2.79284600E+00  2.79284600E+00
  2.79284600E+00  8.21874000E-01
MicOpt                                     I   N=          12
          -1          -1          -1          -1          -1          -1
          -1          -1          -1          -1          -1          -1
Number of residues                         I                0
Number of secondary structures             I                0
SymInf integers                            I   N=          26
           1           1           1           1           1           0
           0           0           0           0           0           0
           0           0           0           0           0           0
           0           0           0           0           0           0
           0           0
RotTr to input orientation                 R   N=          12
  9.99995732E-01  7.29527132E-04  2.82912131E-03 -7.31882503E-04  9.99999386E-01
  8.31599387E-04 -2.82851290E-03 -8.33666422E-04  9.99995652E-01  1.34280238E-03
  1.39547023E-03  3.57922397E-04
Number of contracted shells                I               72
Number of primitive shells                 I              126
Pure/Cartesian d shells                    I                0
Pure/Cartesian f shells                    I                0
Highest angular momentum                   I                2
Largest degree of contraction              I                6
Shell types                                I   N=          72
           0          -1          -1          -1          -1          -2
           0          -1          -1          -1          -1          -2
           0          -1          -1          -1          -1          -2
           0          -1          -1          -1          -1          -2
           0           0           0           0           1           0
           0           0           0           1           0           0
           0           0           1           0           0           0
           0           1           0           0           0           0
           1           0           0           0           0           1
           0           0           0           0           1           0
           0           0           0           0           0          -1
           1           1           1           1           1          -2
Number of primitives per shell             I   N=          72
           6           3           1           1           1           1
           6           3           1           1           1           1
           6           3           1           1           1           1
           6           3           1           1           1           1
           3           1           1           1           1           3
           1           1           1           1           3           1
           1           1           1           3           1           1
           1           1           3           1           1           1
           1           3           1           1           1           1
           3           1           1           1           1           6
           3           1           1           1           1           1
           5           2           1           1           1           1
Shell to atom map                          I   N=          72
           1           1           1           1           1           1
           2           2           2           2           2           2
           3           3           3           3           3           3
           4           4           4           4           4           4
           5           5           5           5           5           6
           6           6           6           6           7           7
           7           7           7           8           8           8
           8           8           9           9           9           9
           9          10          10          10          10          10
          11          11          11          11          11          12
          12          12          12          12          12          12
          12          12          12          12          12          12
Primitive exponents                        R   N=         126
  4.56324000E+03  6.82024000E+02  1.54973000E+02  4.44553000E+01  1.30290000E+01
  1.82773000E+00  2.09642000E+01  4.80331000E+00  1.45933000E+00  4.83456000E-01
  1.45585000E-01  4.38000000E-02  6.26000000E-01  4.56324000E+03  6.82024000E+02
  1.54973000E+02  4.44553000E+01  1.30290000E+01  1.82773000E+00  2.09642000E+01
  4.80331000E+00  1.45933000E+00  4.83456000E-01  1.45585000E-01  4.38000000E-02
  6.26000000E-01  4.56324000E+03  6.82024000E+02  1.54973000E+02  4.44553000E+01
  1.30290000E+01  1.82773000E+00  2.09642000E+01  4.80331000E+00  1.45933000E+00
  4.83456000E-01  1.45585000E-01  4.38000000E-02  6.26000000E-01  4.56324000E+03
  6.82024000E+02  1.54973000E+02  4.44553000E+01  1.30290000E+01  1.82773000E+00
  2.09642000E+01  4.80331000E+00  1.45933000E+00  4.83456000E-01  1.45585000E-01
  4.38000000E-02  6.26000000E-01  3.38650000E+01  5.09479000E+00  1.15879000E+00
  3.25840000E-01  1.02741000E-01  3.60000000E-02  7.50000000E-01  3.38650000E+01
  5.09479000E+00  1.15879000E+00  3.25840000E-01  1.02741000E-01  3.60000000E-02
  7.50000000E-01  3.38650000E+01  5.09479000E+00  1.15879000E+00  3.25840000E-01
  1.02741000E-01  3.60000000E-02  7.50000000E-01  3.38650000E+01  5.09479000E+00
  1.15879000E+00  3.25840000E-01  1.02741000E-01  3.60000000E-02  7.50000000E-01
  3.38650000E+01  5.09479000E+00  1.15879000E+00  3.25840000E-01  1.02741000E-01
  3.60000000E-02  7.50000000E-01  3.38650000E+01  5.09479000E+00  1.15879000E+00
  3.25840000E-01  1.02741000E-01  3.60000000E-02  7.50000000E-01  3.38650000E+01
  5.09479000E+00  1.15879000E+00  3.25840000E-01  1.02741000E-01  3.60000000E-02
  7.50000000E-01  1.05819000E+05  1.58720000E+04  3.61965000E+03  1.03080000E+03
  3.39908000E+02  1.24538000E+02  1.24538000E+02  4.95135000E+01  2.08056000E+01
  6.58346000E+00  2.56468000E+00  5.59763000E-01  1.83273000E-01  4.83000000E-02
  5.89776000E+02  1.39849000E+02  4.51413000E+01  1.68733000E+01  2.77152000E+00
  6.74110000E+00  2.77152000E+00  1.02387000E+00  3.81368000E-01  1.09437000E-01
  7.50000000E-01
Contraction coefficients                   R   N=         126
  1.96665025E-03  1.52306019E-02  7.61269097E-02  2.60801033E-01  6.16462078E-01
  2.21006028E-01  1.14660081E-01  9.19999648E-01 -3.03068213E-03  1.00000000E+00
  1.00000000E+00  1.00000000E+00  1.00000000E+00  1.96665025E-03  1.52306019E-02
  7.61269097E-02  2.60801033E-01  6.16462078E-01  2.21006028E-01  1.14660081E-01
  9.19999648E-01 -3.03068213E-03  1.00000000E+00  1.00000000E+00  1.00000000E+00
  1.00000000E+00  1.96665025E-03  1.52306019E-02  7.61269097E-02  2.60801033E-01
  6.16462078E-01  2.21006028E-01  1.14660081E-01  9.19999648E-01 -3.03068213E-03
  1.00000000E+00  1.00000000E+00  1.00000000E+00  1.00000000E+00  1.96665025E-03
  1.52306019E-02  7.61269097E-02  2.60801033E-01  6.16462078E-01  2.21006028E-01
  1.14660081E-01  9.19999648E-01 -3.03068213E-03  1.00000000E+00  1.00000000E+00
  1.00000000E+00  1.00000000E+00  2.54938145E-02  1.90373109E-01  8.52161486E-01
  1.00000000E+00  1.00000000E+00  1.00000000E+00  1.00000000E+00  2.54938145E-02
  1.90373109E-01  8.52161486E-01  1.00000000E+00  1.00000000E+00  1.00000000E+00
  1.00000000E+00  2.54938145E-02  1.90373109E-01  8.52161486E-01  1.00000000E+00
  1.00000000E+00  1.00000000E+00  1.00000000E+00  2.54938145E-02  1.90373109E-01
  8.52161486E-01  1.00000000E+00  1.00000000E+00  1.00000000E+00  1.00000000E+00
  2.54938145E-02  1.90373109E-01  8.52161486E-01  1.00000000E+00  1.00000000E+00
  1.00000000E+00  1.00000000E+00  2.54938145E-02  1.90373109E-01  8.52161486E-01
  1.00000000E+00  1.00000000E+00  1.00000000E+00  1.00000000E+00  2.54938145E-02
  1.90373109E-01  8.52161486E-01  1.00000000E+00  1.00000000E+00  1.00000000E+00
  1.00000000E+00  7.38000247E-04  5.71800191E-03  2.94950099E-02  1.17286039E-01
  3.62949121E-01  5.84149195E-01  1.34176973E-01  6.24249876E-01  2.91755942E-01
  1.00000000E+00  1.00000000E+00  1.00000000E+00  1.00000000E+00  1.00000000E+00
  3.66556935E-03  2.83679194E-02  1.24756603E-01  3.39654631E-01  7.47585963E-01
 -1.57224381E+00  9.92388882E-01  1.00000000E+00  1.00000000E+00  1.00000000E+00
  1.00000000E+00
P(S=P) Contraction coefficients            R   N=         126
  0.00000000E+00  0.00000000E+00  0.00000000E+00  0.00000000E+00  0.00000000E+00
  0.00000000E+00  4.02486927E-02  2.37593957E-01  8.15853851E-01  1.00000000E+00
  1.00000000E+00  1.00000000E+00  0.00000000E+00  0.00000000E+00  0.00000000E+00
  0.00000000E+00  0.00000000E+00  0.00000000E+00  0.00000000E+00  4.02486927E-02
  2.37593957E-01  8.15853851E-01  1.00000000E+00  1.00000000E+00  1.00000000E+00
  0.00000000E+00  0.00000000E+00  0.00000000E+00  0.00000000E+00  0.00000000E+00
  0.00000000E+00  0.00000000E+00  4.02486927E-02  2.37593957E-01  8.15853851E-01
  1.00000000E+00  1.00000000E+00  1.00000000E+00  0.00000000E+00  0.00000000E+00
  0.00000000E+00  0.00000000E+00  0.00000000E+00  0.00000000E+00  0.00000000E+00
  4.02486927E-02  2.37593957E-01  8.15853851E-01  1.00000000E+00  1.00000000E+00
  1.00000000E+00  0.00000000E+00  0.00000000E+00  0.00000000E+00  0.00000000E+00
  0.00000000E+00  0.00000000E+00  0.00000000E+00  0.00000000E+00  0.00000000E+00
  0.00000000E+00  0.00000000E+00  0.00000000E+00  0.00000000E+00  0.00000000E+00
  0.00000000E+00  0.00000000E+00  0.00000000E+00  0.00000000E+00  0.00000000E+00
  0.00000000E+00  0.00000000E+00  0.00000000E+00  0.00000000E+00  0.00000000E+00
  0.00000000E+00  0.00000000E+00  0.00000000E+00  0.00000000E+00  0.00000000E+00
  0.00000000E+00  0.00000000E+00  0.00000000E+00  0.00000000E+00  0.00000000E+00
  0.00000000E+00  0.00000000E+00  0.00000000E+00  0.00000000E+00  0.00000000E+00
  0.00000000E+00  0.00000000E+00  0.00000000E+00  0.00000000E+00  0.00000000E+00
  0.00000000E+00  0.00000000E+00  0.00000000E+00  0.00000000E+00  0.00000000E+00
  0.00000000E+00  0.00000000E+00  0.00000000E+00  0.00000000E+00  0.00000000E+00
  0.00000000E+00  0.00000000E+00  0.00000000E+00  0.00000000E+00  0.00000000E+00
  0.00000000E+00  0.00000000E+00  0.00000000E+00  0.00000000E+00  1.00000000E+00
  0.00000000E+00  0.00000000E+00  0.00000000E+00  0.00000000E+00  0.00000000E+00
  0.00000000E+00  0.00000000E+00  0.00000000E+00  0.00000000E+00  0.00000000E+00
  0.00000000E+00
Coordinates of each shell                  R   N=         216
  8.86328612E-01  3.31331743E+00  6.01129739E-02  8.86328612E-01  3.31331743E+00
  6.01129739E-02  8.86328612E-01  3.31331743E+00  6.01129739E-02  8.86328612E-01
  3.31331743E+00  6.01129739E-02  8.86328612E-01  3.31331743E+00  6.01129739E-02
  8.86328612E-01  3.31331743E+00  6.01129739E-02  5.75446679E-03  6.50637316E-01
 -6.04909258E-01  5.75446679E-03  6.50637316E-01 -6.04909258E-01  5.75446679E-03
  6.50637316E-01 -6.04909258E-01  5.75446679E-03  6.50637316E-01 -6.04909258E-01
  5.75446679E-03  6.50637316E-01 -6.04909258E-01  5.75446679E-03  6.50637316E-01
 -6.04909258E-01 -2.28075157E+00 -1.82590311E-01  8.30807675E-01 -2.28075157E+00
 -1.82590311E-01  8.30807675E-01 -2.28075157E+00 -1.82590311E-01  8.30807675E-01
 -2.28075157E+00 -1.82590311E-01  8.30807675E-01 -2.28075157E+00 -1.82590311E-01
  8.30807675E-01 -2.28075157E+00 -1.82590311E-01  8.30807675E-01 -4.41591670E+00
 -9.41510239E-01 -3.02373507E-01 -4.41591670E+00 -9.41510239E-01 -3.02373507E-01
 -4.41591670E+00 -9.41510239E-01 -3.02373507E-01 -4.41591670E+00 -9.41510239E-01
 -3.02373507E-01 -4.41591670E+00 -9.41510239E-01 -3.02373507E-01 -4.41591670E+00
 -9.41510239E-01 -3.02373507E-01 -4.66997488E+00 -1.06462385E+00 -2.33592184E+00
 -4.66997488E+00 -1.06462385E+00 -2.33592184E+00 -4.66997488E+00 -1.06462385E+00
 -2.33592184E+00 -4.66997488E+00 -1.06462385E+00 -2.33592184E+00 -4.66997488E+00
 -1.06462385E+00 -2.33592184E+00  2.60831675E+00  3.83148623E+00 -9.49923384E-01
  2.60831675E+00  3.83148623E+00 -9.49923384E-01  2.60831675E+00  3.83148623E+00
 -9.49923384E-01  2.60831675E+00  3.83148623E+00 -9.49923384E-01  2.60831675E+00
  3.83148623E+00 -9.49923384E-01 -6.03410872E+00 -1.48708403E+00  8.32092062E-01
 -6.03410872E+00 -1.48708403E+00  8.32092062E-01 -6.03410872E+00 -1.48708403E+00
  8.32092062E-01 -6.03410872E+00 -1.48708403E+00  8.32092062E-01 -6.03410872E+00
 -1.48708403E+00  8.32092062E-01 -1.96478043E+00 -5.01256020E-02  2.86614202E+00
 -1.96478043E+00 -5.01256020E-02  2.86614202E+00 -1.96478043E+00 -5.01256020E-02
  2.86614202E+00 -1.96478043E+00 -5.01256020E-02  2.86614202E+00 -1.96478043E+00
 -5.01256020E-02  2.86614202E+00 -2.79850313E-01  5.63565761E-01 -2.64352773E+00
 -2.79850313E-01  5.63565761E-01 -2.64352773E+00 -2.79850313E-01  5.63565761E-01
 -2.64352773E+00 -2.79850313E-01  5.63565761E-01 -2.64352773E+00 -2.79850313E-01
  5.63565761E-01 -2.64352773E+00  1.27834838E+00  3.44666753E+00  2.08384038E+00
  1.27834838E+00  3.44666753E+00  2.08384038E+00  1.27834838E+00  3.44666753E+00
  2.08384038E+00  1.27834838E+00  3.44666753E+00  2.08384038E+00  1.27834838E+00
  3.44666753E+00  2.08384038E+00 -6.02572514E-01  4.67870581E+00 -3.83269243E-01
 -6.02572514E-01  4.67870581E+00 -3.83269243E-01 -6.02572514E-01  4.67870581E+00
 -3.83269243E-01 -6.02572514E-01  4.67870581E+00 -3.83269243E-01 -6.02572514E-01
  4.67870581E+00 -3.83269243E-01  2.61718429E+00 -1.58574806E+00  3.69847312E-02
  2.61718429E+00 -1.58574806E+00  3.69847312E-02  2.61718429E+00 -1.58574806E+00
  3.69847312E-02  2.61718429E+00 -1.58574806E+00  3.69847312E-02  2.61718429E+00
 -1.58574806E+00  3.69847312E-02  2.61718429E+00 -1.58574806E+00  3.69847312E-02
  2.61718429E+00 -1.58574806E+00  3.69847312E-02  2.61718429E+00 -1.58574806E+00
  3.69847312E-02  2.61718429E+00 -1.58574806E+00  3.69847312E-02  2.61718429E+00
 -1.58574806E+00  3.69847312E-02  2.61718429E+00 -1.58574806E+00  3.69847312E-02
  2.61718429E+00 -1.58574806E+00  3.69847312E-02  2.61718429E+00 -1.58574806E+00
  3.69847312E-02
Constraint Structure                       R   N=          36
  8.86328612E-01  3.31331743E+00  6.01129739E-02  5.75446679E-03  6.50637316E-01
 -6.04909258E-01 -2.28075157E+00 -1.82590311E-01  8.30807675E-01 -4.41591670E+00
 -9.41510239E-01 -3.02373507E-01 -4.66997488E+00 -1.06462385E+00 -2.33592184E+00
  2.60831675E+00  3.83148623E+00 -9.49923384E-01 -6.03410872E+00 -1.48708403E+00
  8.32092062E-01 -1.96478043E+00 -5.01256020E-02  2.86614202E+00 -2.79850313E-01
  5.63565761E-01 -2.64352773E+00  1.27834838E+00  3.44666753E+00  2.08384038E+00
 -6.02572514E-01  4.67870581E+00 -3.83269243E-01  2.61718429E+00 -1.58574806E+00
  3.69847312E-02
Num ILSW                                   I              100
ILSW                                       I   N=         100
           0           0           0           0           2           0
           0           0           0           0         402          -1
           5           0           0           0           0           0
           0           0           0           0           0           0
           1           0           0           0           0           0
           0           0      100000           0          -1           0
           0           0           0           0           0           0
           0           0           0           1           0           0
           0           0           1           0           0           0
           0           0           4          41           0           0
           0           0           5           0           0           0
           0           0           0           0           0           0
           0           0           0           0           0           0
           0           0           0           0           0           0
           0           0           0           0           0           0
           0           0           0           0           0           0
           0           0           0           0
Num RLSW                                   I               41
RLSW                                       R   N=          41
  8.00000000E-01  7.20000000E-01  1.00000000E+00  8.10000000E-01  2.00000000E-01
  0.00000000E+00  0.00000000E+00  1.00000000E+00  0.00000000E+00  0.00000000E+00
  0.00000000E+00  0.00000000E+00  1.00000000E+00  0.00000000E+00  0.00000000E+00
  0.00000000E+00  0.00000000E+00  1.00000000E+00  0.00000000E+00  0.00000000E+00
  0.00000000E+00  0.00000000E+00  1.00000000E+00  0.00000000E+00  0.00000000E+00
  0.00000000E+00  0.00000000E+00  1.00000000E+00  0.00000000E+00  0.00000000E+00
  0.00000000E+00  0.00000000E+00  0.00000000E+00  0.00000000E+00  0.00000000E+00
  0.00000000E+00  0.00000000E+00  0.00000000E+00  1.00000000E+00  1.00000000E+00
  0.00000000E+00
MxBond                                     I                4
NBond                                      I   N=          12
           4           4           3           3           1           1
           1           1           1           1           1           1
IBond                                      I   N=          48
           2           6          10          11           1           3
           9          12           2           4           8           0
           3           5           7           0           4           0
           0           0           1           0           0           0
           4           0           0           0           3           0
           0           0           2           0           0           0
           1           0           0           0           1           0
           0           0           2           0           0           0
RBond                                      R   N=          48
  1.00000000E+00  1.00000000E+00  1.00000000E+00  1.00000000E+00  1.00000000E+00
  1.00000000E+00  1.00000000E+00  1.00000000E+00  1.00000000E+00  2.00000000E+00
  1.00000000E+00  0.00000000E+00  2.00000000E+00  1.00000000E+00  1.00000000E+00
  0.00000000E+00  1.00000000E+00  0.00000000E+00  0.00000000E+00  0.00000000E+00
  1.00000000E+00  0.00000000E+00  0.00000000E+00  0.00000000E+00  1.00000000E+00
  0.00000000E+00  0.00000000E+00  0.00000000E+00  1.00000000E+00  0.00000000E+00
  0.00000000E+00  0.00000000E+00  1.00000000E+00  0.00000000E+00  0.00000000E+00
  0.00000000E+00  1.00000000E+00  0.00000000E+00  0.00000000E+00  0.00000000E+00
  1.00000000E+00  0.00000000E+00  0.00000000E+00  0.00000000E+00  1.00000000E+00
  0.00000000E+00  0.00000000E+00  0.00000000E+00
Virial Ratio                               R      2.003128618793212E+00
SCF Energy                                 R     -6.168938786261648E+02
Total Energy                               R     -6.168938786261648E+02
RMS Density                                R      7.584234830091680E-12
Nuclear derivative order                   I                0
External E-field                           R   N=          35
  0.00000000E+00  0.00000000E+00  0.00000000E+00  0.00000000E+00  0.00000000E+00
  0.00000000E+00  0.00000000E+00  0.00000000E+00  0.00000000E+00  0.00000000E+00
  0.00000000E+00  0.00000000E+00  0.00000000E+00  0.00000000E+00  0.00000000E+00
  0.00000000E+00  0.00000000E+00  0.00000000E+00  0.00000000E+00  0.00000000E+00
  0.00000000E+00  0.00000000E+00  0.00000000E+00  0.00000000E+00  0.00000000E+00
  0.00000000E+00  0.00000000E+00  0.00000000E+00  0.00000000E+00  0.00000000E+00
  0.00000000E+00  0.00000000E+00  0.00000000E+00  0.00000000E+00  0.00000000E+00
IOpCl                                      I                0
IROHF                                      I                0
Alpha Orbital Energies                     R   N=         167
 -1.01534739E+02 -1.02456513E+01 -1.01977383E+01 -1.01874085E+01 -1.01804346E+01
 -9.44913772E+00 -7.21347730E+00 -7.20407039E+00 -7.20388443E+00 -8.67344910E-01
 -7.85595707E-01 -7.41139411E-01 -6.40295948E-01 -5.78944280E-01 -4.85791767E-01
 -4.74208457E-01 -4.44685819E-01 -4.16567841E-01 -4.04225992E-01 -3.74537679E-01
 -3.65017676E-01 -3.06350894E-01 -2.98315755E-01 -2.79977498E-01 -3.45349591E-02
 -7.60915581E-03  6.03469927E-03  7.66574639E-03  2.10688891E-02  2.85645017E-02
  3.87799874E-02  4.07059757E-02  6.36342789E-02  6.54080760E-02  7.27758358E-02
  8.30778340E-02  8.80665558E-02  9.91447872E-02  1.10509619E-01  1.14455395E-01
  1.19178696E-01  1.21803942E-01  1.28631672E-01  1.30484030E-01  1.35323083E-01
  1.40812327E-01  1.50259983E-01  1.56622733E-01  1.58718851E-01  1.64183499E-01
  1.73475504E-01  1.88979973E-01  1.91081434E-01  2.13566836E-01  2.20592774E-01
  2.25520700E-01  2.47673996E-01  2.63581717E-01  2.66446978E-01  2.92875521E-01
  3.43054058E-01  3.49905254E-01  3.86315566E-01  4.26059212E-01  4.30480927E-01
  4.44380149E-01  4.56228893E-01  4.78214729E-01  4.88215772E-01  4.96190579E-01
  5.24977129E-01  5.27095650E-01  5.68699202E-01  5.87741670E-01  5.95887534E-01
  6.23116587E-01  6.37378731E-01  6.49535737E-01  6.62623152E-01  6.64281589E-01
  6.91310731E-01  7.05244060E-01  7.28865534E-01  7.33985524E-01  7.79002639E-01
  8.11044234E-01  8.30761584E-01  8.60198100E-01  8.92929912E-01  9.00349070E-01
  9.42783057E-01  9.57573584E-01  9.99591058E-01  1.03274349E+00  1.06390264E+00
  1.08611072E+00  1.12329868E+00  1.16816920E+00  1.19685106E+00  1.29468503E+00
  1.39675687E+00  1.43880026E+00  1.45042094E+00  1.46725958E+00  1.50522279E+00
  1.54221826E+00  1.55382465E+00  1.58814165E+00  1.59379143E+00  1.62520317E+00
  1.64755975E+00  1.69142740E+00  1.70178696E+00  1.73021368E+00  1.77352597E+00
  1.78349537E+00  1.87811174E+00  1.88053574E+00  1.93438458E+00  1.98284726E+00
  2.00828151E+00  2.07674312E+00  2.11459326E+00  2.15381088E+00  2.17893708E+00
  2.19900098E+00  2.25133253E+00  2.29526328E+00  2.32092002E+00  2.35986905E+00
  2.38740821E+00  2.45351205E+00  2.46673128E+00  2.49321844E+00  2.52830980E+00
  2.56052975E+00  2.57556297E+00  2.58460270E+00  2.59684511E+00  2.63846827E+00
  2.73078702E+00  2.73575944E+00  2.76016245E+00  2.77617141E+00  2.84275764E+00
  2.85939354E+00  2.93063604E+00  3.07570567E+00  3.09482621E+00  3.18514882E+00
  3.40682020E+00  3.48777971E+00  3.71274451E+00  3.78868066E+00  3.79887817E+00
  3.92901587E+00  4.10695198E+00  4.29819299E+00  9.75671796E+00  2.37259290E+01
  2.37884874E+01  2.39442554E+01  2.42200951E+01  2.59328087E+01  2.59689543E+01
  2.64457891E+01  2.15746242E+02
Alpha MO coefficients                      R   N=       27889
  2.06263279E-07 -4.47127364E-07 -2.81855108E-06 -2.45047226E-06 -1.59778947E-06
  9.67021981E-07  2.04923779E-05  1.63653533E-05  1.05100946E-05  9.87529621E-06
  4.28621364E-05  2.98319371E-05  2.47759236E-05 -1.65140873E-03 -1.53581579E-04
  5.01939698E-04  3.92954899E-05  7.25418840E-06 -2.96176264E-06 -5.67272721E-06
  1.33495788E-05  3.89150974E-07  1.51479524E-06 -3.13867732E-06  1.21436050E-05
 -1.22170601E-05  5.95927683E-06 -1.60158684E-05 -1.34965792E-05  2.00499984E-05
 -2.31423096E-05  1.91165657E-04  1.21754414E-04 -1.15551533E-04 -1.87847184E-05
  3.75999919E-03 -4.71907979E-04  4.61932950E-04  8.26172537E-04  1.08212087E-05
 -1.16664735E-06  2.35176530E-06 -2.94131823E-06  8.46679992E-06 -4.89668710E-07
  1.44788634E-06  3.84947870E-06 -2.65135842E-06 -3.81030310E-06 -7.36680190E-06
 -2.24900766E-05  1.04433037E-05  2.42225022E-05  1.00795265E-05  2.87411337E-05
 -6.75681344E-06 -2.47315597E-05 -1.17366554E-03 -1.22881576E-03 -3.90656918E-04
 -5.71987400E-05  7.52414347E-06  7.20666300E-06 -5.08755838E-06  1.50691766E-06
 -3.93152269E-06  2.72013051E-07 -8.21051008E-07 -2.01495802E-06  5.78111307E-07
  4.94499586E-07  8.49777279E-06  9.44448492E-06 -2.01765331E-06  1.67518179E-06
 -2.46533072E-05 -6.55230084E-05 -1.25433537E-05  5.01247616E-05 -1.61908632E-03
 -3.15490101E-04 -1.72875046E-04 -1.57989287E-04 -4.22963040E-06 -1.67546047E-06
 -3.45813029E-06 -1.99186834E-06 -1.68843624E-06 -2.85316699E-06  2.91831150E-05
  4.55675955E-05  2.32713918E-05  6.65722051E-06 -2.71398042E-07  5.35897561E-06
  1.25572336E-05 -8.57092259E-05  7.76118780E-05  2.24036058E-04  8.49484349E-06
  1.33777331E-05 -1.15235454E-05  1.91191545E-06 -1.66481495E-05 -3.98706403E-05
 -1.09691627E-04 -3.57158897E-07 -8.05836725E-08  8.29788911E-07  7.75904025E-06
 -5.20393694E-05  4.44046418E-05  1.24452787E-04 -1.17246559E-05  1.88870623E-06
  1.58333444E-05 -4.88343197E-07 -7.05799694E-05 -1.19616681E-04  1.22216770E-04
 -8.05107048E-06  2.42407125E-06 -1.85363218E-05  1.01691517E-05 -6.41474266E-05
 -2.49513989E-05  7.40387207E-05 -4.87252705E-06  1.27128539E-05  1.56746287E-05
 -8.02811512E-06  4.04195281E-05 -1.34307060E-04 -3.07276383E-04  2.86588732E-07
 -5.04776259E-06 -3.80892221E-07  4.11609680E-01  6.54076160E-01  1.50040135E-02