 Entering Gaussian System, Link 0=g09
 Input=input.dat
 Output=output.dat
 Initial command:
 /cerebro/home/software/apps/g09/l1.exe /scratch/crawdad/Gau-12638.inp -scrdir=/scratch/crawdad/
 Entering Link 1 = /cerebro/home/software/apps/g09/l1.exe PID=     12640.
  
 Copyright (c) 1988,1990,1992,1993,1995,1998,2003,2009, Gaussian, Inc.
                  All Rights Reserved.
  
 This is part of the Gaussian(R) 09 program.  It is based on
 the Gaussian(R) 03 system (copyright 2003, Gaussian, Inc.),
 the Gaussian(R) 98 system (copyright 1998, Gaussian, Inc.),
 the Gaussian(R) 94 system (copyright 1995, Gaussian, Inc.),
 the Gaussian 92(TM) system (copyright 1992, Gaussian, Inc.),
 the Gaussian 90(TM) system (copyright 1990, Gaussian, Inc.),
 the Gaussian 88(TM) system (copyright 1988, Gaussian, Inc.),
 the Gaussian 86(TM) system (copyright 1986, Carnegie Mellon
 University), and the Gaussian 82(TM) system (copyright 1983,
 Carnegie Mellon University). Gaussian is a federally registered
 trademark of Gaussian, Inc.
  
 This software contains proprietary and confidential information,
 including trade secrets, belonging to Gaussian, Inc.
  
 This software is provided under written license and may be
 used, copied, transmitted, or stored only in accord with that
 written license.
  
 The following legend is applicable only to US Government
 contracts under FAR:
  
                    RESTRICTED RIGHTS LEGEND
  
 Use, reproduction and disclosure by the US Government is
 subject to restrictions as set forth in subparagraphs (a)
 and (c) of the Commercial Computer Software - Restricted
 Rights clause in FAR 52.227-19.
  
 Gaussian, Inc.
 340 Quinnipiac St., Bldg. 40, Wallingford CT 06492
  
  
 ---------------------------------------------------------------
 Warning -- This program may not be used in any manner that
 competes with the business of Gaussian, Inc. or will provide
 assistance to any competitor of Gaussian, Inc.  The licensee
 of this program is prohibited from giving any competitor of
 Gaussian, Inc. access to this program.  By using this program,
 the user acknowledges that Gaussian, Inc. is engaged in the
 business of creating and licensing software in the field of
 computational chemistry and represents and warrants to the
 licensee that it is not a competitor of Gaussian, Inc. and that
 it will not use this program in any manner prohibited above.
 ---------------------------------------------------------------
  

 Cite this work as:
 Gaussian 09, Revision A.02,
 M. J. Frisch, G. W. Trucks, H. B. Schlegel, G. E. Scuseria, 
 M. A. Robb, J. R. Cheeseman, G. Scalmani, V. Barone, B. Mennucci, 
 G. A. Petersson, H. Nakatsuji, M. Caricato, X. Li, H. P. Hratchian, 
 A. F. Izmaylov, J. Bloino, G. Zheng, J. L. Sonnenberg, M. Hada, 
 M. Ehara, K. Toyota, R. Fukuda, J. Hasegawa, M. Ishida, T. Nakajima, 
 Y. Honda, O. Kitao, H. Nakai, T. Vreven, J. A. Montgomery, Jr., 
 J. E. Peralta, F. Ogliaro, M. Bearpark, J. J. Heyd, E. Brothers, 
 K. N. Kudin, V. N. Staroverov, R. Kobayashi, J. Normand, 
 K. Raghavachari, A. Rendell, J. C. Burant, S. S. Iyengar, J. Tomasi, 
 M. Cossi, N. Rega, J. M. Millam, M. Klene, J. E. Knox, J. B. Cross, 
 V. Bakken, C. Adamo, J. Jaramillo, R. Gomperts, R. E. Stratmann, 
 O. Yazyev, A. J. Austin, R. Cammi, C. Pomelli, J. W. Ochterski, 
 R. L. Martin, K. Morokuma, V. G. Zakrzewski, G. A. Voth, 
 P. Salvador, J. J. Dannenberg, S. Dapprich, A. D. Daniels, 
 O. Farkas, J. B. Foresman, J. V. Ortiz, J. Cioslowski, 
 and D. J. Fox, Gaussian, Inc., Wallingford CT, 2009.
 
 ******************************************
 Gaussian 09:  EM64L-G09RevA.02 11-Jun-2009
                10-Jul-2013 
 ******************************************
 %chk=vibave
 %mem=1000mb
 %nproc=1
 Will use up to    1 processors via shared memory.
 ----------------------------------------------------------------------
 #P B3LYP/6-311++G** scf(conver=11) int=ultrafine polar=optrot cphf(rdf
 req,conver=11)
 ----------------------------------------------------------------------
 1/38=1,83=21/1;
 2/12=2,17=6,18=5,40=1/2;
 3/5=4,6=6,7=1111,11=2,16=1,25=1,30=1,36=2,74=-5,75=-5/1,2,3;
 4//1;
 5/5=2,6=11,38=5,96=-2,98=1/2;
 8/6=4,10=90,11=11/1;
 10/6=1,7=11,13=10,46=8,60=-2,72=3/2;
 6/7=2,8=2,9=2,10=2,28=1/1;
 99/5=1,9=1/99;
 Leave Link    1 at Wed Jul 10 16:50:08 2013, MaxMem=  131072000 cpu:       0.1
 (Enter /cerebro/home/software/apps/g09/l101.exe)
 -----------------------------
 (R)-3-chloro-1-butene tau=120
 -----------------------------
 Symbolic Z-matrix:
 Charge =  0 Multiplicity = 1
 C                     0.47204   1.75169   0.03723 
 C                     0.00505   0.35299  -0.32369 
 C                    -1.21002  -0.08632   0.42878 
 C                    -2.33002  -0.50063  -0.1587 
 H                    -2.42682  -0.60336  -1.23607 
 H                     1.37511   2.0402   -0.50288 
 H                    -3.20506  -0.73719   0.4384 
 H                    -1.10744  -0.15803   1.51459 
 H                    -0.1702    0.26193  -1.39536 
 H                     0.66331   1.82305   1.11038 
 H                    -0.3292    2.45508  -0.21106 
 Cl                    1.38638  -0.83743   0.02312 
 
 NAtoms=     12 NQM=     12 NQMF=      0 NMic=      0 NMicF=      0 NTot=     12.
                    Isotopes and Nuclear Properties:
 (Nuclear quadrupole moments (NQMom) in fm**2, nuclear magnetic moments (NMagM)
  in nuclear magnetons)

  Atom         1           2           3           4           5           6           7           8           9          10
 IAtWgt=          12          12          12          12           1           1           1           1           1           1
 AtmWgt=  12.0000000  12.0000000  12.0000000  12.0000000   1.0078250   1.0078250   1.0078250   1.0078250   1.0078250   1.0078250
 NucSpn=           0           0           0           0           1           1           1           1           1           1
 AtZEff=   0.0000000   0.0000000   0.0000000   0.0000000   0.0000000   0.0000000   0.0000000   0.0000000   0.0000000   0.0000000
 NQMom=    0.0000000   0.0000000   0.0000000   0.0000000   0.0000000   0.0000000   0.0000000   0.0000000   0.0000000   0.0000000
 NMagM=    0.0000000   0.0000000   0.0000000   0.0000000   2.7928460   2.7928460   2.7928460   2.7928460   2.7928460   2.7928460

  Atom        11          12
 IAtWgt=           1          35
 AtmWgt=   1.0078250  34.9688527
 NucSpn=           1           3
 AtZEff=   0.0000000   0.0000000
 NQMom=    0.0000000  -8.1650000
 NMagM=    2.7928460   0.8218740
 Using perturbation frequencies:    0.071980    0.077357    0.104503    0.128347
 Leave Link  101 at Wed Jul 10 16:50:09 2013, MaxMem=  131072000 cpu:       0.1
 (Enter /cerebro/home/software/apps/g09/l202.exe)
                          Input orientation:                          
 ---------------------------------------------------------------------
 Center     Atomic      Atomic             Coordinates (Angstroms)
 Number     Number       Type             X           Y           Z
 ---------------------------------------------------------------------
      1          6           0        0.472036    1.751689    0.037229
      2          6           0        0.005050    0.352988   -0.323692
      3          6           0       -1.210020   -0.086317    0.428775
      4          6           0       -2.330025   -0.500635   -0.158697
      5          1           0       -2.426824   -0.603360   -1.236071
      6          1           0        1.375112    2.040197   -0.502877
      7          1           0       -3.205060   -0.737189    0.438398
      8          1           0       -1.107438   -0.158026    1.514592
      9          1           0       -0.170197    0.261929   -1.395362
     10          1           0        0.663311    1.823048    1.110378
     11          1           0       -0.329205    2.455082   -0.211061
     12         17           0        1.386379   -0.837427    0.023122
 ---------------------------------------------------------------------
                    Distance matrix (angstroms):
                    1          2          3          4          5
     1  C    0.000000
     2  C    1.518125   0.000000
     3  C    2.522079   1.495189   0.000000
     4  C    3.600402   2.491681   1.330862   0.000000
     5  H    3.946003   2.767860   2.125949   1.086580   0.000000
     6  H    1.091099   2.180791   3.474614   4.505810   4.688356
     7  H    4.458305   3.474777   2.098550   1.085434   1.851326
     8  H    2.885195   2.208631   1.093007   2.100475   3.083058
     9  H    2.164293   1.089716   2.128376   2.603018   2.422079
    10  H    1.092395   2.156603   2.760366   3.996262   4.576266
    11  H    1.094713   2.131481   2.764766   3.569634   3.847690
    12  Cl   2.745860   1.856190   2.733132   3.736060   4.022546
                    6          7          8          9         10
     6  H    0.000000
     7  H    5.438551   0.000000
     8  H    3.881419   2.427682   0.000000
     9  H    2.519275   3.683926   3.085874   0.000000
    10  H    1.776627   4.687287   2.687674   3.067663   0.000000
    11  H    1.778195   4.345450   3.226741   2.497553   1.769394
    12  Cl   2.925325   4.611270   2.984157   2.375629   2.963627
                   11         12
    11  H    0.000000
    12  Cl   3.720039   0.000000
 Stoichiometry    C4H7Cl
 Framework group  C1[X(C4H7Cl)]
 Deg. of freedom    30
 Full point group                 C1      NOp   1
 Largest Abelian subgroup         C1      NOp   1
 Largest concise Abelian subgroup C1      NOp   1
                         Standard orientation:                         
 ---------------------------------------------------------------------
 Center     Atomic      Atomic             Coordinates (Angstroms)
 Number     Number       Type             X           Y           Z
 ---------------------------------------------------------------------
      1          6           0        0.473128    1.752453    0.036963
      2          6           0        0.005431    0.353990   -0.323958
      3          6           0       -1.209863   -0.084696    0.428509
      4          6           0       -2.330079   -0.498443   -0.158963
      5          1           0       -2.426930   -0.601119   -1.236336
      6          1           0        1.376351    2.040501   -0.503143
      7          1           0       -3.205234   -0.734551    0.438132
      8          1           0       -1.107317   -0.156457    1.514326
      9          1           0       -0.169863    0.263021   -1.395628
     10          1           0        0.664440    1.823714    1.110112
     11          1           0       -0.327753    2.456254   -0.211327
     12         17           0        1.386153   -0.837129    0.022856
 ---------------------------------------------------------------------
 Rotational constants (GHZ):      5.5614678      2.7444609      2.0029034
 Leave Link  202 at Wed Jul 10 16:50:09 2013, MaxMem=  131072000 cpu:       0.0
 (Enter /cerebro/home/software/apps/g09/l301.exe)
 Standard basis: 6-311++G(d,p) (5D, 7F)
 Ernie: Thresh=  0.10000D-02 Tol=  0.10000D-05 Strict=F.
 There are   167 symmetry adapted basis functions of A   symmetry.
 Integral buffers will be    131072 words long.
 Raffenetti 2 integral format.
 Two-electron integral symmetry is turned on.
   167 basis functions,   260 primitive gaussians,   172 cartesian basis functions
    24 alpha electrons       24 beta electrons
       nuclear repulsion energy       211.6512413519 Hartrees.
 IExCor=  402 DFT=T Ex+Corr=B3LYP ExCW=0 ScaHFX=  0.200000
 ScaDFX=  0.800000  0.720000  1.000000  0.810000 ScalE2=  1.000000  1.000000
 IRadAn=      5 IRanWt=     -1 IRanGd=            0 ICorTp=0
 NAtoms=   12 NActive=   12 NUniq=   12 SFac= 7.50D-01 NAtFMM=   80 NAOKFM=F Big=F
 Leave Link  301 at Wed Jul 10 16:50:09 2013, MaxMem=  131072000 cpu:       0.1
 (Enter /cerebro/home/software/apps/g09/l302.exe)
 NPDir=0 NMtPBC=     1 NCelOv=     1 NCel=       1 NClECP=     1 NCelD=      1
         NCelK=      1 NCelE2=     1 NClLst=     1 CellRange=     0.0.
 One-electron integrals computed using PRISM.
 NBasis=   167 RedAO= T  NBF=   167
 NBsUse=   167 1.00D-06 NBFU=   167
 Precomputing XC quadrature grid using
 IXCGrd= 2 IRadAn=           5 IRanWt=          -1 IRanGd=           0 AccXCQ= 1.00D-10.
 NRdTot=    1019 NPtTot=      274288 NUsed=      281590 NTot=      281622
 NSgBfM=   172   172   172   172   172 NAtAll=    12    12.
 Leave Link  302 at Wed Jul 10 16:50:10 2013, MaxMem=  131072000 cpu:       0.7
 (Enter /cerebro/home/software/apps/g09/l303.exe)
 DipDrv:  MaxL=2.
 Leave Link  303 at Wed Jul 10 16:50:10 2013, MaxMem=  131072000 cpu:       0.1
 (Enter /cerebro/home/software/apps/g09/l401.exe)
 Harris functional with IExCor=  402 diagonalized for initial guess.
 ExpMin= 3.60D-02 ExpMax= 1.06D+05 ExpMxC= 3.62D+03 IAcc=3 IRadAn=         5 AccDes= 0.00D+00
 HarFok:  IExCor=  402 AccDes= 0.00D+00 IRadAn=         5 IDoV= 1
 ScaDFX=  1.000000  1.000000  1.000000  1.000000
 FoFCou: FMM=F IPFlag=           0 FMFlag=      100000 FMFlg1=           0
         NFxFlg=           0 DoJE=T BraDBF=F KetDBF=T FulRan=T
         Omega=  0.000000  0.000000  1.000000  0.000000  0.000000 ICntrl=     500 IOpCl=  0
         NMat0=    1 NMatS0=    1 NMatT0=    0 NMatD0=    1 NMtDS0=    0 NMtDT0=    0
         I1Cent=           4 NGrid=           0.
 Petite list used in FoFCou.
 Harris En= -616.912708225207    
 Initial guess orbital symmetries:
       Occupied  (A) (A) (A) (A) (A) (A) (A) (A) (A) (A) (A) (A)
                 (A) (A) (A) (A) (A) (A) (A) (A) (A) (A) (A) (A)
       Virtual   (A) (A) (A) (A) (A) (A) (A) (A) (A) (A) (A) (A)
                 (A) (A) (A) (A) (A) (A) (A) (A) (A) (A) (A) (A)
                 (A) (A) (A) (A) (A) (A) (A) (A) (A) (A) (A) (A)
                 (A) (A) (A) (A) (A) (A) (A) (A) (A) (A) (A) (A)
                 (A) (A) (A) (A) (A) (A) (A) (A) (A) (A) (A) (A)
                 (A) (A) (A) (A) (A) (A) (A) (A) (A) (A) (A) (A)
                 (A) (A) (A) (A) (A) (A) (A) (A) (A) (A) (A) (A)
                 (A) (A) (A) (A) (A) (A) (A) (A) (A) (A) (A) (A)
                 (A) (A) (A) (A) (A) (A) (A) (A) (A) (A) (A) (A)
                 (A) (A) (A) (A) (A) (A) (A) (A) (A) (A) (A) (A)
                 (A) (A) (A) (A) (A) (A) (A) (A) (A) (A) (A) (A)
                 (A) (A) (A) (A) (A) (A) (A) (A) (A) (A) (A)
 The electronic state of the initial guess is 1-A.
 Leave Link  401 at Wed Jul 10 16:50:18 2013, MaxMem=  131072000 cpu:       7.5
 (Enter /cerebro/home/software/apps/g09/l502.exe)
 Closed shell SCF:
 Requested convergence on RMS density matrix=1.00D-11 within 128 cycles.
 Requested convergence on MAX density matrix=1.00D-09.
 Requested convergence on             energy=1.00D-09.
 No special actions if energy rises.
 Using DIIS extrapolation, IDIIS=  1040.
 Integral symmetry usage will be decided dynamically.
       281469 words used for storage of precomputed grid.
 Keep R1 ints in memory in canonical form, NReq=113664361.
 IEnd=      390694 IEndB=      390694 NGot=   131072000 MDV=    20042794
 LenX=    20042794 LenY=    20012769
 Symmetry not used in FoFDir.
 MinBra= 0 MaxBra= 2 Meth= 1.
 IRaf=       0 NMat=   1 IRICut=       1 DoRegI=T DoRafI=F ISym2E= 0 JSym2E=0.

 Cycle   1  Pass 1  IDiag  1:
 E= -616.722109059863    
 DIIS: error= 2.32D-02 at cycle   1 NSaved=   1.
 NSaved= 1 IEnMin= 1 EnMin= -616.722109059863     IErMin= 1 ErrMin= 2.32D-02
 ErrMax= 2.32D-02 EMaxC= 1.00D-01 BMatC= 2.05D-01 BMatP= 2.05D-01
 IDIUse=3 WtCom= 7.68D-01 WtEn= 2.32D-01
 Coeff-Com:  0.100D+01
 Coeff-En:   0.100D+01
 Coeff:      0.100D+01
 Gap=     0.387 Goal=   None    Shift=    0.000
 GapD=    0.387 DampG=1.000 DampE=0.500 DampFc=0.5000 IDamp=-1.
 Damping current iteration by 5.00D-01
 RMSDP=6.67D-03 MaxDP=1.73D-01              OVMax= 2.22D-01

 Cycle   2  Pass 1  IDiag  1:
 E= -616.793599900622     Delta-E=       -0.071490840759 Rises=F Damp=T
 DIIS: error= 6.05D-03 at cycle   2 NSaved=   2.
 NSaved= 2 IEnMin= 2 EnMin= -616.793599900622     IErMin= 2 ErrMin= 6.05D-03
 ErrMax= 6.05D-03 EMaxC= 1.00D-01 BMatC= 1.28D-02 BMatP= 2.05D-01
 IDIUse=3 WtCom= 9.39D-01 WtEn= 6.05D-02
 Coeff-Com:  0.381D-01 0.962D+00
 Coeff-En:   0.179D+00 0.821D+00
 Coeff:      0.466D-01 0.953D+00
 Gap=     0.286 Goal=   None    Shift=    0.000
 RMSDP=4.42D-03 MaxDP=1.74D-01 DE=-7.15D-02 OVMax= 1.25D-01

 Cycle   3  Pass 1  IDiag  1:
 E= -616.888468160425     Delta-E=       -0.094868259803 Rises=F Damp=F
 DIIS: error= 6.31D-03 at cycle   3 NSaved=   3.
 NSaved= 3 IEnMin= 3 EnMin= -616.888468160425     IErMin= 2 ErrMin= 6.05D-03
 ErrMax= 6.31D-03 EMaxC= 1.00D-01 BMatC= 5.27D-03 BMatP= 1.28D-02
 IDIUse=3 WtCom= 9.37D-01 WtEn= 6.31D-02
 Coeff-Com: -0.622D-01 0.350D+00 0.712D+00
 Coeff-En:   0.000D+00 0.000D+00 0.100D+01
 Coeff:     -0.583D-01 0.328D+00 0.730D+00
 Gap=     0.257 Goal=   None    Shift=    0.000
 RMSDP=1.84D-03 MaxDP=5.81D-02 DE=-9.49D-02 OVMax= 3.04D-02

 Cycle   4  Pass 1  IDiag  1:
 E= -616.892394056976     Delta-E=       -0.003925896551 Rises=F Damp=F
 DIIS: error= 3.37D-03 at cycle   4 NSaved=   4.
 NSaved= 4 IEnMin= 4 EnMin= -616.892394056976     IErMin= 4 ErrMin= 3.37D-03
 ErrMax= 3.37D-03 EMaxC= 1.00D-01 BMatC= 2.06D-03 BMatP= 5.27D-03
 IDIUse=3 WtCom= 9.66D-01 WtEn= 3.37D-02
 Coeff-Com: -0.376D-01 0.126D+00 0.446D+00 0.466D+00
 Coeff-En:   0.000D+00 0.000D+00 0.253D+00 0.747D+00
 Coeff:     -0.363D-01 0.121D+00 0.440D+00 0.475D+00
 Gap=     0.246 Goal=   None    Shift=    0.000
 RMSDP=5.66D-04 MaxDP=1.74D-02 DE=-3.93D-03 OVMax= 1.39D-02

 Cycle   5  Pass 1  IDiag  1:
 E= -616.894332114700     Delta-E=       -0.001938057724 Rises=F Damp=F
 DIIS: error= 5.94D-04 at cycle   5 NSaved=   5.
 NSaved= 5 IEnMin= 5 EnMin= -616.894332114700     IErMin= 5 ErrMin= 5.94D-04
 ErrMax= 5.94D-04 EMaxC= 1.00D-01 BMatC= 7.99D-05 BMatP= 2.06D-03
 IDIUse=3 WtCom= 9.94D-01 WtEn= 5.94D-03
 Coeff-Com: -0.142D-01 0.416D-01 0.186D+00 0.240D+00 0.546D+00
 Coeff-En:   0.000D+00 0.000D+00 0.000D+00 0.000D+00 0.100D+01
 Coeff:     -0.141D-01 0.413D-01 0.185D+00 0.239D+00 0.549D+00
 Gap=     0.246 Goal=   None    Shift=    0.000
 RMSDP=9.94D-05 MaxDP=3.06D-03 DE=-1.94D-03 OVMax= 6.48D-03

 Cycle   6  Pass 1  IDiag  1:
 E= -616.894402011960     Delta-E=       -0.000069897260 Rises=F Damp=F
 DIIS: error= 2.83D-04 at cycle   6 NSaved=   6.
 NSaved= 6 IEnMin= 6 EnMin= -616.894402011960     IErMin= 6 ErrMin= 2.83D-04
 ErrMax= 2.83D-04 EMaxC= 1.00D-01 BMatC= 1.53D-05 BMatP= 7.99D-05
 IDIUse=3 WtCom= 9.97D-01 WtEn= 2.83D-03
 Coeff-Com: -0.354D-02 0.681D-02 0.526D-01 0.765D-01 0.328D+00 0.539D+00
 Coeff-En:   0.000D+00 0.000D+00 0.000D+00 0.000D+00 0.155D+00 0.845D+00
 Coeff:     -0.353D-02 0.679D-02 0.524D-01 0.762D-01 0.328D+00 0.540D+00
 Gap=     0.246 Goal=   None    Shift=    0.000
 RMSDP=4.35D-05 MaxDP=1.37D-03 DE=-6.99D-05 OVMax= 2.13D-03

 Cycle   7  Pass 1  IDiag  1:
 E= -616.894416881564     Delta-E=       -0.000014869604 Rises=F Damp=F
 DIIS: error= 3.26D-05 at cycle   7 NSaved=   7.
 NSaved= 7 IEnMin= 7 EnMin= -616.894416881564     IErMin= 7 ErrMin= 3.26D-05
 ErrMax= 3.26D-05 EMaxC= 1.00D-01 BMatC= 4.44D-07 BMatP= 1.53D-05
 IDIUse=1 WtCom= 1.00D+00 WtEn= 0.00D+00
 Coeff-Com: -0.663D-03 0.323D-03 0.121D-01 0.182D-01 0.106D+00 0.237D+00
 Coeff-Com:  0.627D+00
 Coeff:     -0.663D-03 0.323D-03 0.121D-01 0.182D-01 0.106D+00 0.237D+00
 Coeff:      0.627D+00
 Gap=     0.246 Goal=   None    Shift=    0.000
 RMSDP=9.15D-06 MaxDP=2.98D-04 DE=-1.49D-05 OVMax= 1.71D-04

 Cycle   8  Pass 1  IDiag  1:
 E= -616.894417281305     Delta-E=       -0.000000399742 Rises=F Damp=F
 DIIS: error= 7.71D-06 at cycle   8 NSaved=   8.
 NSaved= 8 IEnMin= 8 EnMin= -616.894417281305     IErMin= 8 ErrMin= 7.71D-06
 ErrMax= 7.71D-06 EMaxC= 1.00D-01 BMatC= 1.89D-08 BMatP= 4.44D-07
 IDIUse=1 WtCom= 1.00D+00 WtEn= 0.00D+00
 Coeff-Com:  0.479D-04-0.353D-03 0.737D-03 0.136D-02 0.176D-01 0.568D-01
 Coeff-Com:  0.233D+00 0.691D+00
 Coeff:      0.479D-04-0.353D-03 0.737D-03 0.136D-02 0.176D-01 0.568D-01
 Coeff:      0.233D+00 0.691D+00
 Gap=     0.246 Goal=   None    Shift=    0.000
 RMSDP=1.99D-06 MaxDP=4.55D-05 DE=-4.00D-07 OVMax= 4.65D-05

 Cycle   9  Pass 1  IDiag  1:
 E= -616.894417298990     Delta-E=       -0.000000017685 Rises=F Damp=F
 DIIS: error= 2.19D-06 at cycle   9 NSaved=   9.
 NSaved= 9 IEnMin= 9 EnMin= -616.894417298990     IErMin= 9 ErrMin= 2.19D-06
 ErrMax= 2.19D-06 EMaxC= 1.00D-01 BMatC= 1.27D-09 BMatP= 1.89D-08
 IDIUse=1 WtCom= 1.00D+00 WtEn= 0.00D+00
 Coeff-Com:  0.435D-04-0.104D-03-0.486D-03-0.645D-03-0.213D-02-0.362D-03
 Coeff-Com:  0.204D-01 0.243D+00 0.740D+00
 Coeff:      0.435D-04-0.104D-03-0.486D-03-0.645D-03-0.213D-02-0.362D-03
 Coeff:      0.204D-01 0.243D+00 0.740D+00
 Gap=     0.246 Goal=   None    Shift=    0.000
 RMSDP=8.84D-07 MaxDP=3.52D-05 DE=-1.77D-08 OVMax= 8.56D-06

 Cycle  10  Pass 1  IDiag  1:
 E= -616.894417300235     Delta-E=       -0.000000001246 Rises=F Damp=F
 DIIS: error= 4.96D-07 at cycle  10 NSaved=  10.
 NSaved=10 IEnMin=10 EnMin= -616.894417300235     IErMin=10 ErrMin= 4.96D-07
 ErrMax= 4.96D-07 EMaxC= 1.00D-01 BMatC= 5.01D-11 BMatP= 1.27D-09
 IDIUse=1 WtCom= 1.00D+00 WtEn= 0.00D+00
 Coeff-Com:  0.121D-04-0.217D-04-0.192D-03-0.260D-03-0.127D-02-0.165D-02
 Coeff-Com:  0.793D-03 0.761D-01 0.284D+00 0.642D+00
 Coeff:      0.121D-04-0.217D-04-0.192D-03-0.260D-03-0.127D-02-0.165D-02
 Coeff:      0.793D-03 0.761D-01 0.284D+00 0.642D+00
 Gap=     0.246 Goal=   None    Shift=    0.000
 RMSDP=1.38D-07 MaxDP=5.26D-06 DE=-1.25D-09 OVMax= 1.99D-06

 Cycle  11  Pass 1  IDiag  1:
 E= -616.894417300281     Delta-E=       -0.000000000046 Rises=F Damp=F
 DIIS: error= 1.60D-07 at cycle  11 NSaved=  11.
 NSaved=11 IEnMin=11 EnMin= -616.894417300281     IErMin=11 ErrMin= 1.60D-07
 ErrMax= 1.60D-07 EMaxC= 1.00D-01 BMatC= 6.62D-12 BMatP= 5.01D-11
 IDIUse=1 WtCom= 1.00D+00 WtEn= 0.00D+00
 Coeff-Com:  0.194D-05-0.194D-05-0.510D-04-0.692D-04-0.394D-03-0.612D-03
 Coeff-Com: -0.117D-02 0.139D-01 0.639D-01 0.303D+00 0.622D+00
 Coeff:      0.194D-05-0.194D-05-0.510D-04-0.692D-04-0.394D-03-0.612D-03
 Coeff:     -0.117D-02 0.139D-01 0.639D-01 0.303D+00 0.622D+00
 Gap=     0.246 Goal=   None    Shift=    0.000
 RMSDP=3.18D-08 MaxDP=1.22D-06 DE=-4.59D-11 OVMax= 5.10D-07

 Cycle  12  Pass 1  IDiag  1:
 E= -616.894417300290     Delta-E=       -0.000000000009 Rises=F Damp=F
 DIIS: error= 1.93D-08 at cycle  12 NSaved=  12.
 NSaved=12 IEnMin=12 EnMin= -616.894417300290     IErMin=12 ErrMin= 1.93D-08
 ErrMax= 1.93D-08 EMaxC= 1.00D-01 BMatC= 1.09D-13 BMatP= 6.62D-12
 IDIUse=1 WtCom= 1.00D+00 WtEn= 0.00D+00
 Coeff-Com: -0.286D-06 0.793D-06-0.948D-06-0.291D-05-0.273D-04-0.225D-04
 Coeff-Com: -0.327D-03-0.142D-02-0.125D-02 0.327D-01 0.126D+00 0.845D+00
 Coeff:     -0.286D-06 0.793D-06-0.948D-06-0.291D-05-0.273D-04-0.225D-04
 Coeff:     -0.327D-03-0.142D-02-0.125D-02 0.327D-01 0.126D+00 0.845D+00
 Gap=     0.246 Goal=   None    Shift=    0.000
 RMSDP=1.04D-08 MaxDP=4.41D-07 DE=-8.64D-12 OVMax= 1.16D-07

 Cycle  13  Pass 1  IDiag  1:
 E= -616.894417300289     Delta-E=        0.000000000001 Rises=F Damp=F
 DIIS: error= 4.62D-09 at cycle  13 NSaved=  13.
 NSaved=13 IEnMin=12 EnMin= -616.894417300290     IErMin=13 ErrMin= 4.62D-09
 ErrMax= 4.62D-09 EMaxC= 1.00D-01 BMatC= 4.04D-15 BMatP= 1.09D-13
 IDIUse=1 WtCom= 1.00D+00 WtEn= 0.00D+00
 Coeff-Com: -0.127D-06 0.278D-06 0.113D-05 0.966D-06 0.178D-06 0.752D-05
 Coeff-Com: -0.799D-04-0.717D-03-0.186D-02 0.122D-02 0.171D-01 0.224D+00
 Coeff-Com:  0.761D+00
 Coeff:     -0.127D-06 0.278D-06 0.113D-05 0.966D-06 0.178D-06 0.752D-05
 Coeff:     -0.799D-04-0.717D-03-0.186D-02 0.122D-02 0.171D-01 0.224D+00
 Coeff:      0.761D+00
 Gap=     0.246 Goal=   None    Shift=    0.000
 RMSDP=2.43D-09 MaxDP=1.08D-07 DE= 1.14D-12 OVMax= 1.74D-08

 Cycle  14  Pass 1  IDiag  1:
 E= -616.894417300288     Delta-E=        0.000000000001 Rises=F Damp=F
 DIIS: error= 9.51D-10 at cycle  14 NSaved=  14.
 NSaved=14 IEnMin=12 EnMin= -616.894417300290     IErMin=14 ErrMin= 9.51D-10
 ErrMax= 9.51D-10 EMaxC= 1.00D-01 BMatC= 2.21D-16 BMatP= 4.04D-15
 IDIUse=1 WtCom= 1.00D+00 WtEn= 0.00D+00
 Coeff-Com: -0.873D-08 0.184D-07 0.308D-06 0.371D-06 0.987D-06 0.281D-05
 Coeff-Com: -0.467D-05-0.945D-04-0.418D-03-0.161D-02-0.295D-02 0.113D-01
 Coeff-Com:  0.210D+00 0.784D+00
 Coeff:     -0.873D-08 0.184D-07 0.308D-06 0.371D-06 0.987D-06 0.281D-05
 Coeff:     -0.467D-05-0.945D-04-0.418D-03-0.161D-02-0.295D-02 0.113D-01
 Coeff:      0.210D+00 0.784D+00
 Gap=     0.246 Goal=   None    Shift=    0.000
 RMSDP=6.13D-10 MaxDP=2.64D-08 DE= 9.09D-13 OVMax= 3.64D-09

 Cycle  15  Pass 1  IDiag  1:
 E= -616.894417300289     Delta-E=       -0.000000000001 Rises=F Damp=F
 DIIS: error= 1.71D-10 at cycle  15 NSaved=  15.
 NSaved=15 IEnMin=12 EnMin= -616.894417300290     IErMin=15 ErrMin= 1.71D-10
 ErrMax= 1.71D-10 EMaxC= 1.00D-01 BMatC= 4.05D-18 BMatP= 2.21D-16
 IDIUse=1 WtCom= 1.00D+00 WtEn= 0.00D+00
 Coeff-Com:  0.546D-09-0.109D-08 0.426D-07 0.749D-07 0.196D-06 0.423D-06
 Coeff-Com:  0.806D-06-0.120D-05-0.394D-04-0.321D-03-0.105D-02-0.330D-02
 Coeff-Com:  0.208D-01 0.146D+00 0.838D+00
 Coeff:      0.546D-09-0.109D-08 0.426D-07 0.749D-07 0.196D-06 0.423D-06
 Coeff:      0.806D-06-0.120D-05-0.394D-04-0.321D-03-0.105D-02-0.330D-02
 Coeff:      0.208D-01 0.146D+00 0.838D+00
 Gap=     0.246 Goal=   None    Shift=    0.000
 RMSDP=9.86D-11 MaxDP=3.88D-09 DE=-6.82D-13 OVMax= 7.54D-10

 Cycle  16  Pass 1  IDiag  1:
 E= -616.894417300291     Delta-E=       -0.000000000002 Rises=F Damp=F
 DIIS: error= 4.91D-11 at cycle  16 NSaved=  16.
 NSaved=16 IEnMin=16 EnMin= -616.894417300291     IErMin=16 ErrMin= 4.91D-11
 ErrMax= 4.91D-11 EMaxC= 1.00D-01 BMatC= 2.32D-19 BMatP= 4.05D-18
 IDIUse=1 WtCom= 1.00D+00 WtEn= 0.00D+00
 Large coefficients: NSaved= 16 BigCof=    0.00 CofMax=   10.00 Det=-2.33D-18
 Inversion failed.  Reducing to 15 matrices.
 Coeff-Com: -0.165D-09 0.505D-08 0.138D-07 0.402D-07 0.917D-07 0.382D-06
 Coeff-Com:  0.149D-05 0.377D-06-0.265D-04-0.163D-03-0.982D-03-0.175D-02
 Coeff-Com:  0.654D-02 0.208D+00 0.788D+00
 Coeff:     -0.165D-09 0.505D-08 0.138D-07 0.402D-07 0.917D-07 0.382D-06
 Coeff:      0.149D-05 0.377D-06-0.265D-04-0.163D-03-0.982D-03-0.175D-02
 Coeff:      0.654D-02 0.208D+00 0.788D+00
 Gap=     0.246 Goal=   None    Shift=    0.000
 RMSDP=2.68D-11 MaxDP=8.51D-10 DE=-2.05D-12 OVMax= 1.87D-10

 Cycle  17  Pass 1  IDiag  1:
 E= -616.894417300289     Delta-E=        0.000000000002 Rises=F Damp=F
 DIIS: error= 9.52D-12 at cycle  17 NSaved=  16.
 NSaved=16 IEnMin=15 EnMin= -616.894417300291     IErMin=16 ErrMin= 9.52D-12
 ErrMax= 9.52D-12 EMaxC= 1.00D-01 BMatC= 9.10D-21 BMatP= 2.32D-19
 IDIUse=1 WtCom= 1.00D+00 WtEn= 0.00D+00
 Large coefficients: NSaved= 16 BigCof=    0.00 CofMax=   10.00 Det=-1.16D-19
 Inversion failed.  Reducing to 15 matrices.
 Coeff-Com: -0.109D-08-0.584D-09-0.202D-08 0.219D-08 0.540D-07 0.463D-06
 Coeff-Com:  0.228D-05 0.920D-05 0.606D-05-0.113D-03-0.148D-02-0.561D-02
 Coeff-Com:  0.171D-01 0.206D+00 0.784D+00
 Coeff:     -0.109D-08-0.584D-09-0.202D-08 0.219D-08 0.540D-07 0.463D-06
 Coeff:      0.228D-05 0.920D-05 0.606D-05-0.113D-03-0.148D-02-0.561D-02
 Coeff:      0.171D-01 0.206D+00 0.784D+00
 Gap=     0.246 Goal=   None    Shift=    0.000
 RMSDP=1.18D-11 MaxDP=4.96D-10 DE= 1.59D-12 OVMax= 2.89D-11

 Cycle  18  Pass 1  IDiag  1:
 E= -616.894417300289     Delta-E=        0.000000000000 Rises=F Damp=F
 DIIS: error= 1.99D-12 at cycle  18 NSaved=  16.
 NSaved=16 IEnMin=14 EnMin= -616.894417300291     IErMin=16 ErrMin= 1.99D-12
 ErrMax= 1.99D-12 EMaxC= 1.00D-01 BMatC= 3.47D-22 BMatP= 9.10D-21
 IDIUse=1 WtCom= 1.00D+00 WtEn= 0.00D+00
 Large coefficients: NSaved= 16 BigCof=    0.00 CofMax=   10.00 Det=-3.70D-21
 Inversion failed.  Reducing to 15 matrices.
 Coeff-Com:  0.213D-10 0.702D-09 0.158D-08 0.982D-08 0.276D-07 0.163D-06
 Coeff-Com:  0.583D-06 0.224D-06-0.123D-04-0.111D-03-0.692D-03-0.614D-04
 Coeff-Com:  0.190D-01 0.145D+00 0.837D+00
 Coeff:      0.213D-10 0.702D-09 0.158D-08 0.982D-08 0.276D-07 0.163D-06
 Coeff:      0.583D-06 0.224D-06-0.123D-04-0.111D-03-0.692D-03-0.614D-04
 Coeff:      0.190D-01 0.145D+00 0.837D+00
 Gap=     0.246 Goal=   None    Shift=    0.000
 RMSDP=1.32D-11 MaxDP=5.10D-10 DE=-2.27D-13 OVMax= 6.76D-12

 Cycle  19  Pass 1  IDiag  1:
 E= -616.894417300287     Delta-E=        0.000000000002 Rises=F Damp=F
 DIIS: error= 2.44D-12 at cycle  19 NSaved=  16.
 NSaved=16 IEnMin=13 EnMin= -616.894417300291     IErMin=15 ErrMin= 1.99D-12
 ErrMax= 2.44D-12 EMaxC= 1.00D-01 BMatC= 2.43D-22 BMatP= 3.47D-22
 IDIUse=1 WtCom= 1.00D+00 WtEn= 0.00D+00
 Large coefficients: NSaved= 16 BigCof=    0.00 CofMax=   10.00 Det=-7.26D-22
 Inversion failed.  Reducing to 15 matrices.
 Coeff-Com:  0.287D-09 0.294D-09 0.232D-08 0.521D-08 0.666D-07 0.404D-06
 Coeff-Com:  0.803D-06-0.262D-05-0.407D-04-0.333D-03-0.729D-03 0.477D-02
 Coeff-Com:  0.558D-01 0.452D+00 0.489D+00
 Coeff:      0.287D-09 0.294D-09 0.232D-08 0.521D-08 0.666D-07 0.404D-06
 Coeff:      0.803D-06-0.262D-05-0.407D-04-0.333D-03-0.729D-03 0.477D-02
 Coeff:      0.558D-01 0.452D+00 0.489D+00
 Gap=     0.246 Goal=   None    Shift=    0.000
 RMSDP=8.18D-12 MaxDP=3.65D-10 DE= 1.82D-12 OVMax= 2.86D-12

 SCF Done:  E(RB3LYP) =  -616.894417300     A.U. after   19 cycles
             Convg  =    0.8181D-11             -V/T =  2.0031
 KE= 6.150080749473D+02 PE=-1.880035950352D+03 EE= 4.364822167522D+02
 Leave Link  502 at Wed Jul 10 16:54:29 2013, MaxMem=  131072000 cpu:     250.9
 (Enter /cerebro/home/software/apps/g09/l801.exe)
 Range of M.O.s used for correlation:     1   167
 NBasis=   167 NAE=    24 NBE=    24 NFC=     0 NFV=     0
 NROrb=    167 NOA=    24 NOB=    24 NVA=   143 NVB=   143

 **** Warning!!: The largest alpha MO coefficient is  0.66084669D+02

 Leave Link  801 at Wed Jul 10 16:54:29 2013, MaxMem=  131072000 cpu:       0.0
 (Enter /cerebro/home/software/apps/g09/l1002.exe)
 Minotr:  Closed shell wavefunction.
          Direct CPHF calculation.
          Differentiating once with respect to magnetic field using GIAOs.
          Electric field/nuclear overlap derivatives assumed to be zero.
          Requested convergence is 1.0D-11 RMS, and 1.0D-10 maximum.
          NewPWx=F KeepS1=T KeepF1=T KeepIn=T MapXYZ=F SortEE=F KeepMc=T.
          MDV=     131071900 using IRadAn=       4.
 Generate precomputed XC quadrature information.
          Solving linear equations separately, MaxMat=       0.
          Doing perturbations at frequencies    0.071980    0.077357    0.104503    0.128347
 FoFCou: FMM=F IPFlag=           0 FMFlag=           0 FMFlg1=           0
         NFxFlg=           0 DoJE=F BraDBF=F KetDBF=T FulRan=T
         Omega=  0.000000  0.000000  1.000000  0.000000  0.000000 ICntrl=    6100 IOpCl=  0
         NMat0=    1 NMatS0=    1 NMatT0=    0 NMatD0=    1 NMtDS0=    0 NMtDT0=    0
         I1Cent=           7 NGrid=          12.
 Symmetry not used in FoFCou.
 Integrals replicated using symmetry in FoFDir.
 MinBra= 0 MaxBra= 2 Meth= 1.
 IRaf=       0 NMat=  24 IRICut=      30 DoRegI=T DoRafI=T ISym2E= 2 JSym2E=2.
 CalDSu exits because no D1Ps are significant.
          There are    12 degrees of freedom in the 1st order CPHF.  IDoFFX=0.
 LinEq1:  Iter=  0 NonCon=    12 RMS=5.72D-02 Max=1.62D+00
 AX will form    12 AO Fock derivatives at one time.
 LinEq1:  Iter=  1 NonCon=    12 RMS=1.65D-02 Max=8.06D-01
 LinEq1:  Iter=  2 NonCon=    12 RMS=1.32D-02 Max=7.41D-01
 LinEq1:  Iter=  3 NonCon=    12 RMS=6.93D-03 Max=1.74D-01
 LinEq1:  Iter=  4 NonCon=    12 RMS=4.47D-03 Max=7.63D-02
 LinEq1:  Iter=  5 NonCon=    12 RMS=1.75D-03 Max=5.10D-02
 LinEq1:  Iter=  6 NonCon=    12 RMS=9.18D-04 Max=1.65D-02
 LinEq1:  Iter=  7 NonCon=    12 RMS=3.42D-04 Max=6.12D-03
 LinEq1:  Iter=  8 NonCon=    12 RMS=1.44D-04 Max=3.14D-03
 LinEq1:  Iter=  9 NonCon=    12 RMS=5.52D-05 Max=9.01D-04
 LinEq1:  Iter= 10 NonCon=    12 RMS=2.08D-05 Max=2.78D-04
 LinEq1:  Iter= 11 NonCon=    12 RMS=7.38D-06 Max=1.37D-04
 LinEq1:  Iter= 12 NonCon=    12 RMS=3.45D-06 Max=4.08D-05
 LinEq1:  Iter= 13 NonCon=    12 RMS=1.31D-06 Max=2.06D-05
 LinEq1:  Iter= 14 NonCon=    12 RMS=4.06D-07 Max=7.57D-06
 LinEq1:  Iter= 15 NonCon=    12 RMS=1.10D-07 Max=1.88D-06
 LinEq1:  Iter= 16 NonCon=    12 RMS=3.70D-08 Max=7.47D-07
 LinEq1:  Iter= 17 NonCon=    12 RMS=9.31D-09 Max=1.80D-07
 LinEq1:  Iter= 18 NonCon=    12 RMS=2.40D-09 Max=5.24D-08
 LinEq1:  Iter= 19 NonCon=    12 RMS=7.01D-10 Max=1.88D-08
 LinEq1:  Iter= 20 NonCon=    12 RMS=1.95D-10 Max=3.78D-09
 LinEq1:  Iter= 21 NonCon=     8 RMS=6.91D-11 Max=1.57D-09
 LinEq1:  Iter= 22 NonCon=     4 RMS=1.53D-11 Max=3.08D-10
 LinEq1:  Iter= 23 NonCon=     1 RMS=6.88D-12 Max=1.07D-10
 LinEq1:  Iter= 24 NonCon=     0 RMS=3.33D-12 Max=4.48D-11
 Linear equations converged to 1.000D-11 1.000D-10 after    24 iterations.
 FullF1:  Do perturbations    1 to    12.
 Dipole-magnetic dipole polarizability for W=    0.071980:
                 1             2             3 
      1   0.599576D+01 -0.440144D+00 -0.714278D+01
      2  -0.761101D+01 -0.500698D+01 -0.197310D+02
      3   0.251814D+02  0.985918D+01  0.193125D+01
 w=    0.071980 a.u., Optical Rotation Beta=     -0.9733 au.
 Molar Mass =     90.5523 grams/mole, [Alpha] ( 6330.0 A) =     -360.09 deg.
 Dipole-magnetic dipole polarizability for W=    0.077357:
                 1             2             3 
      1   0.609934D+01 -0.419219D+00 -0.712341D+01
      2  -0.773671D+01 -0.504878D+01 -0.198060D+02
      3   0.254106D+02  0.995157D+01  0.195810D+01
 w=    0.077357 a.u., Optical Rotation Beta=     -1.0029 au.
 Molar Mass =     90.5523 grams/mole, [Alpha] ( 5890.0 A) =     -428.52 deg.
 Dipole-magnetic dipole polarizability for W=    0.104503:
                 1             2             3 
      1   0.682454D+01 -0.265656D+00 -0.698017D+01
      2  -0.858966D+01 -0.531988D+01 -0.202904D+02
      3   0.270045D+02  0.105931D+02  0.214551D+01
 w=    0.104503 a.u., Optical Rotation Beta=     -1.2167 au.
 Molar Mass =     90.5523 grams/mole, [Alpha] ( 4360.0 A) =     -948.78 deg.
 Dipole-magnetic dipole polarizability for W=    0.128347:
                 1             2             3 
      1   0.787913D+01 -0.249932D-01 -0.675671D+01
      2  -0.974831D+01 -0.565537D+01 -0.208908D+02
      3   0.293026D+02  0.115133D+02  0.241694D+01
 w=    0.128347 a.u., Optical Rotation Beta=     -1.5469 au.
 Molar Mass =     90.5523 grams/mole, [Alpha] ( 3550.0 A) =    -1819.51 deg.
 End of Minotr Frequency-dependent properties on file   721 Mask=       2 NFrqRd=     4 NDeriv=     1 LenFil=      42:
 Frequencies=    0.071980    0.077357    0.104503    0.128347
 Property number 2 -- FD Optical Rotation Tensor frequency  1    0.071980:
                 1             2             3 
      1   0.599576D+01 -0.440144D+00 -0.714278D+01
      2  -0.761101D+01 -0.500698D+01 -0.197310D+02
      3   0.251814D+02  0.985918D+01  0.193125D+01
 Property number 2 -- FD Optical Rotation Tensor frequency  2    0.077357:
                 1             2             3 
      1   0.609934D+01 -0.419219D+00 -0.712341D+01
      2  -0.773671D+01 -0.504878D+01 -0.198060D+02
      3   0.254106D+02  0.995157D+01  0.195810D+01
 Property number 2 -- FD Optical Rotation Tensor frequency  3    0.104503:
                 1             2             3 
      1   0.682454D+01 -0.265656D+00 -0.698017D+01
      2  -0.858966D+01 -0.531988D+01 -0.202904D+02
      3   0.270045D+02  0.105931D+02  0.214551D+01
 Property number 2 -- FD Optical Rotation Tensor frequency  4    0.128347:
                 1             2             3 
      1   0.787913D+01 -0.249932D-01 -0.675671D+01
      2  -0.974831D+01 -0.565537D+01 -0.208908D+02
      3   0.293026D+02  0.115133D+02  0.241694D+01
 End of Minotr Frequency-dependent properties file   722 does not exist.
 Leave Link 1002 at Wed Jul 10 17:19:24 2013, MaxMem=  131072000 cpu:    1494.5
 (Enter /cerebro/home/software/apps/g09/l601.exe)
 Copying SCF densities to generalized density rwf, IOpCl= 0 IROHF=0.

 **********************************************************************

            Population analysis using the SCF density.

 **********************************************************************

 Orbital symmetries:
       Occupied  (A) (A) (A) (A) (A) (A) (A) (A) (A) (A) (A) (A)
                 (A) (A) (A) (A) (A) (A) (A) (A) (A) (A) (A) (A)
       Virtual   (A) (A) (A) (A) (A) (A) (A) (A) (A) (A) (A) (A)
                 (A) (A) (A) (A) (A) (A) (A) (A) (A) (A) (A) (A)
                 (A) (A) (A) (A) (A) (A) (A) (A) (A) (A) (A) (A)
                 (A) (A) (A) (A) (A) (A) (A) (A) (A) (A) (A) (A)
                 (A) (A) (A) (A) (A) (A) (A) (A) (A) (A) (A) (A)
                 (A) (A) (A) (A) (A) (A) (A) (A) (A) (A) (A) (A)
                 (A) (A) (A) (A) (A) (A) (A) (A) (A) (A) (A) (A)
                 (A) (A) (A) (A) (A) (A) (A) (A) (A) (A) (A) (A)
                 (A) (A) (A) (A) (A) (A) (A) (A) (A) (A) (A) (A)
                 (A) (A) (A) (A) (A) (A) (A) (A) (A) (A) (A) (A)
                 (A) (A) (A) (A) (A) (A) (A) (A) (A) (A) (A) (A)
                 (A) (A) (A) (A) (A) (A) (A) (A) (A) (A) (A)
 The electronic state is 1-A.
 Alpha  occ. eigenvalues -- -101.53384 -10.24738 -10.19477 -10.18483 -10.18095
 Alpha  occ. eigenvalues --   -9.44823  -7.21255  -7.20317  -7.20299  -0.86716
 Alpha  occ. eigenvalues --   -0.78712  -0.74306  -0.63961  -0.57697  -0.48524
 Alpha  occ. eigenvalues --   -0.47664  -0.44526  -0.41738  -0.40285  -0.37346
 Alpha  occ. eigenvalues --   -0.36726  -0.30700  -0.29842  -0.27957
 Alpha virt. eigenvalues --   -0.03345  -0.00724   0.00630   0.00720   0.02012
 Alpha virt. eigenvalues --    0.02761   0.03915   0.04082   0.06195   0.06480
 Alpha virt. eigenvalues --    0.07433   0.08279   0.08832   0.09926   0.11091
 Alpha virt. eigenvalues --    0.11496   0.11816   0.12286   0.12899   0.13063
 Alpha virt. eigenvalues --    0.13447   0.14262   0.15101   0.15681   0.15911
 Alpha virt. eigenvalues --    0.16435   0.17189   0.18862   0.19177   0.21511
 Alpha virt. eigenvalues --    0.22050   0.22340   0.24512   0.26050   0.27132
 Alpha virt. eigenvalues --    0.29171   0.34143   0.35211   0.38913   0.42713
 Alpha virt. eigenvalues --    0.43160   0.44586   0.45927   0.48004   0.48789
 Alpha virt. eigenvalues --    0.49720   0.52612   0.52822   0.56355   0.58859
 Alpha virt. eigenvalues --    0.59771   0.62431   0.63548   0.64587   0.65727
 Alpha virt. eigenvalues --    0.66235   0.69065   0.70976   0.72670   0.73797
 Alpha virt. eigenvalues --    0.77223   0.80732   0.82975   0.86450   0.89236
 Alpha virt. eigenvalues --    0.89690   0.94180   0.95984   1.00804   1.03011
 Alpha virt. eigenvalues --    1.06210   1.08093   1.13814   1.18873   1.19483
 Alpha virt. eigenvalues --    1.29262   1.39517   1.42864   1.45146   1.46860
 Alpha virt. eigenvalues --    1.50252   1.54264   1.56417   1.58535   1.60227
 Alpha virt. eigenvalues --    1.61583   1.67251   1.69392   1.70135   1.72803
 Alpha virt. eigenvalues --    1.76843   1.78341   1.87042   1.88644   1.94034
 Alpha virt. eigenvalues --    1.99091   2.01443   2.07076   2.11536   2.15719
 Alpha virt. eigenvalues --    2.19063   2.20676   2.25698   2.29589   2.30815
 Alpha virt. eigenvalues --    2.35851   2.37417   2.45679   2.46845   2.49111
 Alpha virt. eigenvalues --    2.52410   2.56293   2.57705   2.58655   2.59827
 Alpha virt. eigenvalues --    2.64697   2.72574   2.73822   2.75205   2.76982
 Alpha virt. eigenvalues --    2.85429   2.86028   2.93235   3.07629   3.08616
 Alpha virt. eigenvalues --    3.18215   3.40648   3.50945   3.71487   3.79591
 Alpha virt. eigenvalues --    3.79809   3.93630   4.11429   4.29049   9.75540
 Alpha virt. eigenvalues --   23.71900  23.79175  23.94588  24.25064  25.93068
 Alpha virt. eigenvalues --   25.97081  26.44487 215.74510
          Condensed to atoms (all electrons):
              1          2          3          4          5          6
     1  C    5.417001   0.122413   0.017904   0.087098  -0.002917   0.377028
     2  C    0.122413   5.419759   0.034955  -0.126481  -0.024526  -0.045590
     3  C    0.017904   0.034955   5.320383   0.430800  -0.042000   0.017666
     4  C    0.087098  -0.126481   0.430800   5.387658   0.394901  -0.008918
     5  H   -0.002917  -0.024526  -0.042000   0.394901   0.559584   0.000159
     6  H    0.377028  -0.045590   0.017666  -0.008918   0.000159   0.544180
     7  H    0.000931   0.023657  -0.011562   0.381081  -0.038383   0.000522
     8  H   -0.015241  -0.014571   0.331421  -0.024390   0.015585  -0.003075
     9  H   -0.051580   0.476543  -0.141126   0.013613   0.011011  -0.002760
    10  H    0.393177  -0.011515  -0.049174   0.001178   0.001623  -0.017985
    11  H    0.368461  -0.055043   0.023077   0.003458  -0.000583  -0.027982
    12  Cl  -0.053426   0.018172  -0.005569   0.072736   0.001037   0.013111
              7          8          9         10         11         12
     1  C    0.000931  -0.015241  -0.051580   0.393177   0.368461  -0.053426
     2  C    0.023657  -0.014571   0.476543  -0.011515  -0.055043   0.018172
     3  C   -0.011562   0.331421  -0.141126  -0.049174   0.023077  -0.005569
     4  C    0.381081  -0.024390   0.013613   0.001178   0.003458   0.072736
     5  H   -0.038383   0.015585   0.011011   0.001623  -0.000583   0.001037
     6  H    0.000522  -0.003075  -0.002760  -0.017985  -0.027982   0.013111
     7  H    0.538306  -0.020745  -0.002731  -0.000496   0.000024  -0.004538
     8  H   -0.020745   0.541336   0.005255   0.001484  -0.001349   0.022665
     9  H   -0.002731   0.005255   0.516502   0.008179  -0.011909  -0.039797
    10  H   -0.000496   0.001484   0.008179   0.540278  -0.033627   0.009263
    11  H    0.000024  -0.001349  -0.011909  -0.033627   0.582393   0.019709
    12  Cl  -0.004538   0.022665  -0.039797   0.009263   0.019709  17.012006
 Mulliken atomic charges:
              1
     1  C   -0.660849
     2  C    0.182228
     3  C    0.073226
     4  C   -0.612734
     5  H    0.124510
     6  H    0.153644
     7  H    0.133934
     8  H    0.161624
     9  H    0.218799
    10  H    0.157615
    11  H    0.133372
    12  Cl  -0.065370
 Sum of Mulliken atomic charges =   0.00000
 Mulliken charges with hydrogens summed into heavy atoms:
              1
     1  C   -0.216218
     2  C    0.401027
     3  C    0.234851
     4  C   -0.354290
    12  Cl  -0.065370
 Sum of Mulliken charges with hydrogens summed into heavy atoms =   0.00000
 Electronic spatial extent (au):  <R**2>=            628.6753
 Charge=              0.0000 electrons
 Dipole moment (field-independent basis, Debye):
    X=             -1.7126    Y=              1.5129    Z=             -0.3297  Tot=              2.3088
 Quadrupole moment (field-independent basis, Debye-Ang):
   XX=            -39.4221   YY=            -40.0794   ZZ=            -37.1447
   XY=              2.4418   XZ=              0.0791   YZ=             -0.2427
 Traceless Quadrupole moment (field-independent basis, Debye-Ang):
   XX=             -0.5400   YY=             -1.1974   ZZ=              1.7374
   XY=              2.4418   XZ=              0.0791   YZ=             -0.2427
 Octapole moment (field-independent basis, Debye-Ang**2):
  XXX=             -1.8729  YYY=              1.4764  ZZZ=             -0.4641  XYY=              4.6447
  XXY=             -4.4812  XXZ=              0.2723  XZZ=             -0.9275  YZZ=             -0.7484
  YYZ=             -0.3556  XYZ=             -0.4857
 Hexadecapole moment (field-independent basis, Debye-Ang**3):
 XXXX=           -488.7128 YYYY=           -277.8548 ZZZZ=            -81.3104 XXXY=              8.7699
 XXXZ=             -3.0197 YYYX=             -8.0338 YYYZ=             -1.7200 ZZZX=              1.1177
 ZZZY=              1.0661 XXYY=           -129.9974 XXZZ=            -96.1476 YYZZ=            -61.3364
 XXYZ=             -2.6502 YYXZ=              1.0301 ZZXY=              2.1968
 N-N= 2.116512413519D+02 E-N=-1.880035950352D+03  KE= 6.150080749473D+02
 No NMR shielding tensors so no spin-rotation constants.
 Leave Link  601 at Wed Jul 10 17:19:24 2013, MaxMem=  131072000 cpu:       0.3
 (Enter /cerebro/home/software/apps/g09/l9999.exe)
 AllDun Frequency-dependent properties on file 20721 Mask=       2 NFrqRd=     4 NDeriv=     1 LenFil=      42:
 Frequencies=    0.071980    0.077357    0.104503    0.128347
 Property number 2 -- FD Optical Rotation Tensor frequency  1    0.071980:
                 1             2             3 
      1   0.599985D+01 -0.434537D+00 -0.713272D+01
      2  -0.760541D+01 -0.501108D+01 -0.197347D+02
      3   0.251763D+02  0.987201D+01  0.193125D+01
 Property number 2 -- FD Optical Rotation Tensor frequency  2    0.077357:
                 1             2             3 
      1   0.610349D+01 -0.413539D+00 -0.711332D+01
      2  -0.773103D+01 -0.505293D+01 -0.198097D+02
      3   0.254055D+02  0.996451D+01  0.195810D+01
 Property number 2 -- FD Optical Rotation Tensor frequency  3    0.104503:
                 1             2             3 
      1   0.682905D+01 -0.259467D+00 -0.696983D+01
      2  -0.858347D+01 -0.532439D+01 -0.202940D+02
      3   0.269991D+02  0.106069D+02  0.214551D+01
 Property number 2 -- FD Optical Rotation Tensor frequency  4    0.128347:
                 1             2             3 
      1   0.788410D+01 -0.180963D-01 -0.674607D+01
      2  -0.974141D+01 -0.566034D+01 -0.208942D+02
      3   0.292968D+02  0.115283D+02  0.241694D+01
 1\1\GINC-COMPUTE-0-100\SP\RB3LYP\6-311++G(d,p)\C4H7Cl1\CRAWDAD\10-Jul-
 2013\0\\#P B3LYP/6-311++G** scf(conver=11) int=ultrafine polar=optrot 
 cphf(rdfreq,conver=11)\\(R)-3-chloro-1-butene tau=120\\0,1\C,0,0.47203
 568,1.75168934,0.03722903\C,0,0.00505046,0.3529884,-0.32369208\C,0,-1.
 21001989,-0.08631653,0.42877508\C,0,-2.33002485,-0.50063464,-0.1586968
 6\H,0,-2.42682391,-0.60336017,-1.23607059\H,0,1.37511156,2.04019738,-0
 .5028767\H,0,-3.20505962,-0.73718862,0.43839821\H,0,-1.10743753,-0.158
 02566,1.51459186\H,0,-0.17019658,0.26192938,-1.39536243\H,0,0.66331089
 ,1.82304798,1.11037759\H,0,-0.32920462,2.45508216,-0.21106133\Cl,0,1.3
 8637939,-0.83742746,0.02312207\\Version=EM64L-G09RevA.02\State=1-A\HF=
 -616.8944173\RMSD=8.181e-12\Dipole=-0.67409,0.5948606,-0.1296991\Quadr
 upole=-0.403356,-0.8883578,1.2917138,1.8156346,0.0589046,-0.1804287\PG
 =C01 [X(C4H7Cl1)]\\@


 GARLIC THEN HAVE POWER TO SAVE FROM DEATH
 BEAR WITH IT THOUGH IT MAKETH UNSAVORY BREATH,
 AND SCORN NOT GARLIC LIKE SOME THAT THINK
 IT ONLY MAKETH MEN WINK AND DRINK AND STINK.
   --  SIR JOHN HARRINGTON,
       "THE ENGLISHMAN'S DOCTOR", 1609
 Job cpu time:  0 days  0 hours 29 minutes 14.5 seconds.
 File lengths (MBytes):  RWF=    120 Int=      0 D2E=      0 Chk=      2 Scr=      1
 Normal termination of Gaussian 09 at Wed Jul 10 17:19:24 2013.
