(R)-3-chloro-1-butene tau=120                                           
SP        RB3LYP                                                      6-311++G(d,p)       
Number of atoms                            I               12
Info1-9                                    I   N=           9
          26          26           0           0           0         110
           1          18        -502
Full Title                                 C   N=           3
(R)-3-chloro-1-butene tau=120       
Route                                      C   N=           7
#P B3LYP/6-311++G** scf(conver=11) int=ultrafine polar=optro
t cphf(rdfreq,conver=11)
Charge                                     I                0
Multiplicity                               I                1
Number of electrons                        I               48
Number of alpha electrons                  I               24
Number of beta electrons                   I               24
Number of basis functions                  I              167
Number of independent functions            I              167
Number of point charges in /Mol/           I                0
Number of translation vectors              I                0
Atomic numbers                             I   N=          12
           6           6           6           6           1           1
           1           1           1           1           1          17
Nuclear charges                            R   N=          12
  6.00000000E+00  6.00000000E+00  6.00000000E+00  6.00000000E+00  1.00000000E+00
  1.00000000E+00  1.00000000E+00  1.00000000E+00  1.00000000E+00  1.00000000E+00
  1.00000000E+00  1.70000000E+01
Current cartesian coordinates              R   N=          36
  8.94083223E-01  3.31165670E+00  6.98502077E-02  1.02627580E-02  6.68944845E-01
 -6.12191846E-01 -2.28631002E+00 -1.60051413E-01  8.09765011E-01 -4.40321121E+00
 -9.41920942E-01 -3.00396067E-01 -4.58623379E+00 -1.13595086E+00 -2.33633736E+00
  2.60092681E+00  3.85598850E+00 -9.50801705E-01 -6.05701478E+00 -1.38810080E+00
  8.27950091E-01 -2.09252650E+00 -2.95660759E-01  2.86166136E+00 -3.20993765E-01
  4.97036953E-01 -2.63735531E+00  1.25560963E+00  3.44632084E+00  2.09780709E+00
 -6.19364221E-01  4.64164760E+00 -3.99350574E-01  2.61944989E+00 -1.58194451E+00
  4.31919167E-02
Number of symbols in /Mol/                 I                0
Force Field                                I                0
Atom Types                                 C   N=          12
                                                            
                                                            
                        
Int Atom Types                             I   N=          12
           0           0           0           0           0           0
           0           0           0           0           0           0
MM charges                                 R   N=          12
  0.00000000E+00  0.00000000E+00  0.00000000E+00  0.00000000E+00  0.00000000E+00
  0.00000000E+00  0.00000000E+00  0.00000000E+00  0.00000000E+00  0.00000000E+00
  0.00000000E+00  0.00000000E+00
Integer atomic weights                     I   N=          12
          12          12          12          12           1           1
           1           1           1           1           1          35
Real atomic weights                        R   N=          12
  1.20000000E+01  1.20000000E+01  1.20000000E+01  1.20000000E+01  1.00782504E+00
  1.00782504E+00  1.00782504E+00  1.00782504E+00  1.00782504E+00  1.00782504E+00
  1.00782504E+00  3.49688527E+01
Atom fragment info                         I   N=          12
           0           0           0           0           0           0
           0           0           0           0           0           0
Atom residue num                           I   N=          12
           0           0           0           0           0           0
           0           0           0           0           0           0
Nuclear spins                              I   N=          12
           0           0           0           0           1           1
           1           1           1           1           1           3
Nuclear ZEff                               R   N=          12
 -3.60000000E+00 -3.60000000E+00 -3.60000000E+00 -3.60000000E+00 -1.00000000E+00
 -1.00000000E+00 -1.00000000E+00 -1.00000000E+00 -1.00000000E+00 -1.00000000E+00
 -1.00000000E+00 -1.42400000E+01
Nuclear ZNuc                               R   N=          12
  6.00000000E+00  6.00000000E+00  6.00000000E+00  6.00000000E+00  1.00000000E+00
  1.00000000E+00  1.00000000E+00  1.00000000E+00  1.00000000E+00  1.00000000E+00
  1.00000000E+00  1.70000000E+01
Nuclear QMom                               R   N=          12
  0.00000000E+00  0.00000000E+00  0.00000000E+00  0.00000000E+00  0.00000000E+00
  0.00000000E+00  0.00000000E+00  0.00000000E+00  0.00000000E+00  0.00000000E+00
  0.00000000E+00 -8.16500000E+00
Nuclear GFac                               R   N=          12
  0.00000000E+00  0.00000000E+00  0.00000000E+00  0.00000000E+00  2.79284600E+00
  2.79284600E+00  2.79284600E+00  2.79284600E+00  2.79284600E+00  2.79284600E+00
  2.79284600E+00  8.21874000E-01
MicOpt                                     I   N=          12
          -1          -1          -1          -1          -1          -1
          -1          -1          -1          -1          -1          -1
Number of residues                         I                0
Number of secondary structures             I                0
SymInf integers                            I   N=          26
           1           1           1           1           1           0
           0           0           0           0           0           0
           0           0           0           0           0           0
           0           0           0           0           0           0
           0           0
RotTr to input orientation                 R   N=          12
  9.99999870E-01  5.09391910E-04  0.00000000E+00 -5.09391910E-04  9.99999870E-01
  0.00000000E+00  0.00000000E+00  0.00000000E+00  1.00000000E+00 -3.78015304E-04
 -1.89858226E-03  5.02463218E-04
Number of contracted shells                I               72
Number of primitive shells                 I              126
Pure/Cartesian d shells                    I                0
Pure/Cartesian f shells                    I                0
Highest angular momentum                   I                2
Largest degree of contraction              I                6
Shell types                                I   N=          72
           0          -1          -1          -1          -1          -2
           0          -1          -1          -1          -1          -2
           0          -1          -1          -1          -1          -2
           0          -1          -1          -1          -1          -2
           0           0           0           0           1           0
           0           0           0           1           0           0
           0           0           1           0           0           0
           0           1           0           0           0           0
           1           0           0           0           0           1
           0           0           0           0           1           0
           0           0           0           0           0          -1
           1           1           1           1           1          -2
Number of primitives per shell             I   N=          72
           6           3           1           1           1           1
           6           3           1           1           1           1
           6           3           1           1           1           1
           6           3           1           1           1           1
           3           1           1           1           1           3
           1           1           1           1           3           1
           1           1           1           3           1           1
           1           1           3           1           1           1
           1           3           1           1           1           1
           3           1           1           1           1           6
           3           1           1           1           1           1
           5           2           1           1           1           1
Shell to atom map                          I   N=          72
           1           1           1           1           1           1
           2           2           2           2           2           2
           3           3           3           3           3           3
           4           4           4           4           4           4
           5           5           5           5           5           6
           6           6           6           6           7           7
           7           7           7           8           8           8
           8           8           9           9           9           9
           9          10          10          10          10          10
          11          11          11          11          11          12
          12          12          12          12          12          12
          12          12          12          12          12          12
Primitive exponents                        R   N=         126
  4.56324000E+03  6.82024000E+02  1.54973000E+02  4.44553000E+01  1.30290000E+01
  1.82773000E+00  2.09642000E+01  4.80331000E+00  1.45933000E+00  4.83456000E-01
  1.45585000E-01  4.38000000E-02  6.26000000E-01  4.56324000E+03  6.82024000E+02
  1.54973000E+02  4.44553000E+01  1.30290000E+01  1.82773000E+00  2.09642000E+01
  4.80331000E+00  1.45933000E+00  4.83456000E-01  1.45585000E-01  4.38000000E-02
  6.26000000E-01  4.56324000E+03  6.82024000E+02  1.54973000E+02  4.44553000E+01
  1.30290000E+01  1.82773000E+00  2.09642000E+01  4.80331000E+00  1.45933000E+00
  4.83456000E-01  1.45585000E-01  4.38000000E-02  6.26000000E-01  4.56324000E+03
  6.82024000E+02  1.54973000E+02  4.44553000E+01  1.30290000E+01  1.82773000E+00
  2.09642000E+01  4.80331000E+00  1.45933000E+00  4.83456000E-01  1.45585000E-01
  4.38000000E-02  6.26000000E-01  3.38650000E+01  5.09479000E+00  1.15879000E+00
  3.25840000E-01  1.02741000E-01  3.60000000E-02  7.50000000E-01  3.38650000E+01
  5.09479000E+00  1.15879000E+00  3.25840000E-01  1.02741000E-01  3.60000000E-02
  7.50000000E-01  3.38650000E+01  5.09479000E+00  1.15879000E+00  3.25840000E-01
  1.02741000E-01  3.60000000E-02  7.50000000E-01  3.38650000E+01  5.09479000E+00
  1.15879000E+00  3.25840000E-01  1.02741000E-01  3.60000000E-02  7.50000000E-01
  3.38650000E+01  5.09479000E+00  1.15879000E+00  3.25840000E-01  1.02741000E-01
  3.60000000E-02  7.50000000E-01  3.38650000E+01  5.09479000E+00  1.15879000E+00
  3.25840000E-01  1.02741000E-01  3.60000000E-02  7.50000000E-01  3.38650000E+01
  5.09479000E+00  1.15879000E+00  3.25840000E-01  1.02741000E-01  3.60000000E-02
  7.50000000E-01  1.05819000E+05  1.58720000E+04  3.61965000E+03  1.03080000E+03
  3.39908000E+02  1.24538000E+02  1.24538000E+02  4.95135000E+01  2.08056000E+01
  6.58346000E+00  2.56468000E+00  5.59763000E-01  1.83273000E-01  4.83000000E-02
  5.89776000E+02  1.39849000E+02  4.51413000E+01  1.68733000E+01  2.77152000E+00
  6.74110000E+00  2.77152000E+00  1.02387000E+00  3.81368000E-01  1.09437000E-01
  7.50000000E-01
Contraction coefficients                   R   N=         126
  1.96665025E-03  1.52306019E-02  7.61269097E-02  2.60801033E-01  6.16462078E-01
  2.21006028E-01  1.14660081E-01  9.19999648E-01 -3.03068213E-03  1.00000000E+00
  1.00000000E+00  1.00000000E+00  1.00000000E+00  1.96665025E-03  1.52306019E-02
  7.61269097E-02  2.60801033E-01  6.16462078E-01  2.21006028E-01  1.14660081E-01
  9.19999648E-01 -3.03068213E-03  1.00000000E+00  1.00000000E+00  1.00000000E+00
  1.00000000E+00  1.96665025E-03  1.52306019E-02  7.61269097E-02  2.60801033E-01
  6.16462078E-01  2.21006028E-01  1.14660081E-01  9.19999648E-01 -3.03068213E-03
  1.00000000E+00  1.00000000E+00  1.00000000E+00  1.00000000E+00  1.96665025E-03
  1.52306019E-02  7.61269097E-02  2.60801033E-01  6.16462078E-01  2.21006028E-01
  1.14660081E-01  9.19999648E-01 -3.03068213E-03  1.00000000E+00  1.00000000E+00
  1.00000000E+00  1.00000000E+00  2.54938145E-02  1.90373109E-01  8.52161486E-01
  1.00000000E+00  1.00000000E+00  1.00000000E+00  1.00000000E+00  2.54938145E-02
  1.90373109E-01  8.52161486E-01  1.00000000E+00  1.00000000E+00  1.00000000E+00
  1.00000000E+00  2.54938145E-02  1.90373109E-01  8.52161486E-01  1.00000000E+00
  1.00000000E+00  1.00000000E+00  1.00000000E+00  2.54938145E-02  1.90373109E-01
  8.52161486E-01  1.00000000E+00  1.00000000E+00  1.00000000E+00  1.00000000E+00
  2.54938145E-02  1.90373109E-01  8.52161486E-01  1.00000000E+00  1.00000000E+00
  1.00000000E+00  1.00000000E+00  2.54938145E-02  1.90373109E-01  8.52161486E-01
  1.00000000E+00  1.00000000E+00  1.00000000E+00  1.00000000E+00  2.54938145E-02
  1.90373109E-01  8.52161486E-01  1.00000000E+00  1.00000000E+00  1.00000000E+00
  1.00000000E+00  7.38000247E-04  5.71800191E-03  2.94950099E-02  1.17286039E-01
  3.62949121E-01  5.84149195E-01  1.34176973E-01  6.24249876E-01  2.91755942E-01
  1.00000000E+00  1.00000000E+00  1.00000000E+00  1.00000000E+00  1.00000000E+00
  3.66556935E-03  2.83679194E-02  1.24756603E-01  3.39654631E-01  7.47585963E-01
 -1.57224381E+00  9.92388882E-01  1.00000000E+00  1.00000000E+00  1.00000000E+00
  1.00000000E+00
P(S=P) Contraction coefficients            R   N=         126
  0.00000000E+00  0.00000000E+00  0.00000000E+00  0.00000000E+00  0.00000000E+00
  0.00000000E+00  4.02486927E-02  2.37593957E-01  8.15853851E-01  1.00000000E+00
  1.00000000E+00  1.00000000E+00  0.00000000E+00  0.00000000E+00  0.00000000E+00
  0.00000000E+00  0.00000000E+00  0.00000000E+00  0.00000000E+00  4.02486927E-02
  2.37593957E-01  8.15853851E-01  1.00000000E+00  1.00000000E+00  1.00000000E+00
  0.00000000E+00  0.00000000E+00  0.00000000E+00  0.00000000E+00  0.00000000E+00
  0.00000000E+00  0.00000000E+00  4.02486927E-02  2.37593957E-01  8.15853851E-01
  1.00000000E+00  1.00000000E+00  1.00000000E+00  0.00000000E+00  0.00000000E+00
  0.00000000E+00  0.00000000E+00  0.00000000E+00  0.00000000E+00  0.00000000E+00
  4.02486927E-02  2.37593957E-01  8.15853851E-01  1.00000000E+00  1.00000000E+00
  1.00000000E+00  0.00000000E+00  0.00000000E+00  0.00000000E+00  0.00000000E+00
  0.00000000E+00  0.00000000E+00  0.00000000E+00  0.00000000E+00  0.00000000E+00
  0.00000000E+00  0.00000000E+00  0.00000000E+00  0.00000000E+00  0.00000000E+00
  0.00000000E+00  0.00000000E+00  0.00000000E+00  0.00000000E+00  0.00000000E+00
  0.00000000E+00  0.00000000E+00  0.00000000E+00  0.00000000E+00  0.00000000E+00
  0.00000000E+00  0.00000000E+00  0.00000000E+00  0.00000000E+00  0.00000000E+00
  0.00000000E+00  0.00000000E+00  0.00000000E+00  0.00000000E+00  0.00000000E+00
  0.00000000E+00  0.00000000E+00  0.00000000E+00  0.00000000E+00  0.00000000E+00
  0.00000000E+00  0.00000000E+00  0.00000000E+00  0.00000000E+00  0.00000000E+00
  0.00000000E+00  0.00000000E+00  0.00000000E+00  0.00000000E+00  0.00000000E+00
  0.00000000E+00  0.00000000E+00  0.00000000E+00  0.00000000E+00  0.00000000E+00
  0.00000000E+00  0.00000000E+00  0.00000000E+00  0.00000000E+00  0.00000000E+00
  0.00000000E+00  0.00000000E+00  0.00000000E+00  0.00000000E+00  1.00000000E+00
  0.00000000E+00  0.00000000E+00  0.00000000E+00  0.00000000E+00  0.00000000E+00
  0.00000000E+00  0.00000000E+00  0.00000000E+00  0.00000000E+00  0.00000000E+00
  0.00000000E+00
Coordinates of each shell                  R   N=         216
  8.94083223E-01  3.31165670E+00  6.98502077E-02  8.94083223E-01  3.31165670E+00
  6.98502077E-02  8.94083223E-01  3.31165670E+00  6.98502077E-02  8.94083223E-01
  3.31165670E+00  6.98502077E-02  8.94083223E-01  3.31165670E+00  6.98502077E-02
  8.94083223E-01  3.31165670E+00  6.98502077E-02  1.02627580E-02  6.68944845E-01
 -6.12191846E-01  1.02627580E-02  6.68944845E-01 -6.12191846E-01  1.02627580E-02
  6.68944845E-01 -6.12191846E-01  1.02627580E-02  6.68944845E-01 -6.12191846E-01
  1.02627580E-02  6.68944845E-01 -6.12191846E-01  1.02627580E-02  6.68944845E-01
 -6.12191846E-01 -2.28631002E+00 -1.60051413E-01  8.09765011E-01 -2.28631002E+00
 -1.60051413E-01  8.09765011E-01 -2.28631002E+00 -1.60051413E-01  8.09765011E-01
 -2.28631002E+00 -1.60051413E-01  8.09765011E-01 -2.28631002E+00 -1.60051413E-01
  8.09765011E-01 -2.28631002E+00 -1.60051413E-01  8.09765011E-01 -4.40321121E+00
 -9.41920942E-01 -3.00396067E-01 -4.40321121E+00 -9.41920942E-01 -3.00396067E-01
 -4.40321121E+00 -9.41920942E-01 -3.00396067E-01 -4.40321121E+00 -9.41920942E-01
 -3.00396067E-01 -4.40321121E+00 -9.41920942E-01 -3.00396067E-01 -4.40321121E+00
 -9.41920942E-01 -3.00396067E-01 -4.58623379E+00 -1.13595086E+00 -2.33633736E+00
 -4.58623379E+00 -1.13595086E+00 -2.33633736E+00 -4.58623379E+00 -1.13595086E+00
 -2.33633736E+00 -4.58623379E+00 -1.13595086E+00 -2.33633736E+00 -4.58623379E+00
 -1.13595086E+00 -2.33633736E+00  2.60092681E+00  3.85598850E+00 -9.50801705E-01
  2.60092681E+00  3.85598850E+00 -9.50801705E-01  2.60092681E+00  3.85598850E+00
 -9.50801705E-01  2.60092681E+00  3.85598850E+00 -9.50801705E-01  2.60092681E+00
  3.85598850E+00 -9.50801705E-01 -6.05701478E+00 -1.38810080E+00  8.27950091E-01
 -6.05701478E+00 -1.38810080E+00  8.27950091E-01 -6.05701478E+00 -1.38810080E+00
  8.27950091E-01 -6.05701478E+00 -1.38810080E+00  8.27950091E-01 -6.05701478E+00
 -1.38810080E+00  8.27950091E-01 -2.09252650E+00 -2.95660759E-01  2.86166136E+00
 -2.09252650E+00 -2.95660759E-01  2.86166136E+00 -2.09252650E+00 -2.95660759E-01
  2.86166136E+00 -2.09252650E+00 -2.95660759E-01  2.86166136E+00 -2.09252650E+00
 -2.95660759E-01  2.86166136E+00 -3.20993765E-01  4.97036953E-01 -2.63735531E+00
 -3.20993765E-01  4.97036953E-01 -2.63735531E+00 -3.20993765E-01  4.97036953E-01
 -2.63735531E+00 -3.20993765E-01  4.97036953E-01 -2.63735531E+00 -3.20993765E-01
  4.97036953E-01 -2.63735531E+00  1.25560963E+00  3.44632084E+00  2.09780709E+00
  1.25560963E+00  3.44632084E+00  2.09780709E+00  1.25560963E+00  3.44632084E+00
  2.09780709E+00  1.25560963E+00  3.44632084E+00  2.09780709E+00  1.25560963E+00
  3.44632084E+00  2.09780709E+00 -6.19364221E-01  4.64164760E+00 -3.99350574E-01
 -6.19364221E-01  4.64164760E+00 -3.99350574E-01 -6.19364221E-01  4.64164760E+00
 -3.99350574E-01 -6.19364221E-01  4.64164760E+00 -3.99350574E-01 -6.19364221E-01
  4.64164760E+00 -3.99350574E-01  2.61944989E+00 -1.58194451E+00  4.31919167E-02
  2.61944989E+00 -1.58194451E+00  4.31919167E-02  2.61944989E+00 -1.58194451E+00
  4.31919167E-02  2.61944989E+00 -1.58194451E+00  4.31919167E-02  2.61944989E+00
 -1.58194451E+00  4.31919167E-02  2.61944989E+00 -1.58194451E+00  4.31919167E-02
  2.61944989E+00 -1.58194451E+00  4.31919167E-02  2.61944989E+00 -1.58194451E+00
  4.31919167E-02  2.61944989E+00 -1.58194451E+00  4.31919167E-02  2.61944989E+00
 -1.58194451E+00  4.31919167E-02  2.61944989E+00 -1.58194451E+00  4.31919167E-02
  2.61944989E+00 -1.58194451E+00  4.31919167E-02  2.61944989E+00 -1.58194451E+00
  4.31919167E-02
Constraint Structure                       R   N=          36
  8.94083223E-01  3.31165670E+00  6.98502077E-02  1.02627580E-02  6.68944845E-01
 -6.12191846E-01 -2.28631002E+00 -1.60051413E-01  8.09765011E-01 -4.40321121E+00
 -9.41920942E-01 -3.00396067E-01 -4.58623379E+00 -1.13595086E+00 -2.33633736E+00
  2.60092681E+00  3.85598850E+00 -9.50801705E-01 -6.05701478E+00 -1.38810080E+00
  8.27950091E-01 -2.09252650E+00 -2.95660759E-01  2.86166136E+00 -3.20993765E-01
  4.97036953E-01 -2.63735531E+00  1.25560963E+00  3.44632084E+00  2.09780709E+00
 -6.19364221E-01  4.64164760E+00 -3.99350574E-01  2.61944989E+00 -1.58194451E+00
  4.31919167E-02
Num ILSW                                   I              100
ILSW                                       I   N=         100
           0           0           0           0           2           0
           0           0           0           0         402          -1
           5           0           0           0           0           0
           0           0           0           0           0           0
           1           0           0           0           0           0
           0           0      100000           0          -1           0
           0           0           0           0           0           0
           0           0           0           1           0           0
           0           0           1           0           0           0
           0           0           4          41           0           0
           0           0           5           0           0           0
           0           0           0           0           0           0
           0           0           0           0           0           0
           0           0           0           0           0           0
           0           0           0           0           0           0
           0           0           0           0           0           0
           0           0           0           0
Num RLSW                                   I               41
RLSW                                       R   N=          41
  8.00000000E-01  7.20000000E-01  1.00000000E+00  8.10000000E-01  2.00000000E-01
  0.00000000E+00  0.00000000E+00  1.00000000E+00  0.00000000E+00  0.00000000E+00
  0.00000000E+00  0.00000000E+00  1.00000000E+00  0.00000000E+00  0.00000000E+00
  0.00000000E+00  0.00000000E+00  1.00000000E+00  0.00000000E+00  0.00000000E+00
  0.00000000E+00  0.00000000E+00  1.00000000E+00  0.00000000E+00  0.00000000E+00
  0.00000000E+00  0.00000000E+00  1.00000000E+00  0.00000000E+00  0.00000000E+00
  0.00000000E+00  0.00000000E+00  0.00000000E+00  0.00000000E+00  0.00000000E+00
  0.00000000E+00  0.00000000E+00  0.00000000E+00  1.00000000E+00  1.00000000E+00
  0.00000000E+00
MxBond                                     I                4
NBond                                      I   N=          12
           4           4           3           3           1           1
           1           1           1           1           1           1
IBond                                      I   N=          48
           2           6          10          11           1           3
           9          12           2           4           8           0
           3           5           7           0           4           0
           0           0           1           0           0           0
           4           0           0           0           3           0
           0           0           2           0           0           0
           1           0           0           0           1           0
           0           0           2           0           0           0
RBond                                      R   N=          48
  1.00000000E+00  1.00000000E+00  1.00000000E+00  1.00000000E+00  1.00000000E+00
  1.00000000E+00  1.00000000E+00  1.00000000E+00  1.00000000E+00  2.00000000E+00
  1.00000000E+00  0.00000000E+00  2.00000000E+00  1.00000000E+00  1.00000000E+00
  0.00000000E+00  1.00000000E+00  0.00000000E+00  0.00000000E+00  0.00000000E+00
  1.00000000E+00  0.00000000E+00  0.00000000E+00  0.00000000E+00  1.00000000E+00
  0.00000000E+00  0.00000000E+00  0.00000000E+00  1.00000000E+00  0.00000000E+00
  0.00000000E+00  0.00000000E+00  1.00000000E+00  0.00000000E+00  0.00000000E+00
  0.00000000E+00  1.00000000E+00  0.00000000E+00  0.00000000E+00  0.00000000E+00
  1.00000000E+00  0.00000000E+00  0.00000000E+00  0.00000000E+00  1.00000000E+00
  0.00000000E+00  0.00000000E+00  0.00000000E+00
Virial Ratio                               R      2.003067183066042E+00
SCF Energy                                 R     -6.168944173002874E+02
Total Energy                               R     -6.168944173002874E+02
RMS Density                                R      8.181207941103694E-12
Nuclear derivative order                   I                0
External E-field                           R   N=          35
  0.00000000E+00  0.00000000E+00  0.00000000E+00  0.00000000E+00  0.00000000E+00
  0.00000000E+00  0.00000000E+00  0.00000000E+00  0.00000000E+00  0.00000000E+00
  0.00000000E+00  0.00000000E+00  0.00000000E+00  0.00000000E+00  0.00000000E+00
  0.00000000E+00  0.00000000E+00  0.00000000E+00  0.00000000E+00  0.00000000E+00
  0.00000000E+00  0.00000000E+00  0.00000000E+00  0.00000000E+00  0.00000000E+00
  0.00000000E+00  0.00000000E+00  0.00000000E+00  0.00000000E+00  0.00000000E+00
  0.00000000E+00  0.00000000E+00  0.00000000E+00  0.00000000E+00  0.00000000E+00
IOpCl                                      I                0
IROHF                                      I                0
Alpha Orbital Energies                     R   N=         167
 -1.01533842E+02 -1.02473800E+01 -1.01947736E+01 -1.01848288E+01 -1.01809546E+01
 -9.44822827E+00 -7.21255274E+00 -7.20316806E+00 -7.20298946E+00 -8.67160826E-01
 -7.87122766E-01 -7.43057117E-01 -6.39613858E-01 -5.76971617E-01 -4.85241577E-01
 -4.76636868E-01 -4.45264764E-01 -4.17376019E-01 -4.02845555E-01 -3.73457023E-01
 -3.67264938E-01 -3.06998467E-01 -2.98424913E-01 -2.79566384E-01 -3.34471873E-02
 -7.24062280E-03  6.30042669E-03  7.19887747E-03  2.01239587E-02  2.76129930E-02
  3.91482511E-02  4.08156706E-02  6.19505037E-02  6.48037134E-02  7.43289073E-02
  8.27933412E-02  8.83196466E-02  9.92632010E-02  1.10909540E-01  1.14964286E-01
  1.18159468E-01  1.22858861E-01  1.28985011E-01  1.30629459E-01  1.34466050E-01
  1.42617526E-01  1.51005055E-01  1.56810544E-01  1.59111600E-01  1.64349151E-01
  1.71892571E-01  1.88620661E-01  1.91770730E-01  2.15108540E-01  2.20502464E-01
  2.23401010E-01  2.45120258E-01  2.60495167E-01  2.71318453E-01  2.91706127E-01
  3.41425550E-01  3.52106176E-01  3.89125792E-01  4.27131752E-01  4.31598497E-01
  4.45856707E-01  4.59274295E-01  4.80037796E-01  4.87889349E-01  4.97197364E-01
  5.26124560E-01  5.28218563E-01  5.63554678E-01  5.88594621E-01  5.97706838E-01
  6.24307145E-01  6.35479912E-01  6.45874927E-01  6.57265744E-01  6.62348622E-01
  6.90648077E-01  7.09760042E-01  7.26703823E-01  7.37966477E-01  7.72230509E-01
  8.07324809E-01  8.29750085E-01  8.64504413E-01  8.92359395E-01  8.96897574E-01
  9.41795490E-01  9.59838117E-01  1.00804295E+00  1.03011322E+00  1.06210276E+00
  1.08092773E+00  1.13814059E+00  1.18872822E+00  1.19483105E+00  1.29261688E+00
  1.39517282E+00  1.42863811E+00  1.45145808E+00  1.46860367E+00  1.50252390E+00
  1.54264075E+00  1.56416661E+00  1.58534812E+00  1.60227331E+00  1.61583273E+00
  1.67251356E+00  1.69392344E+00  1.70134615E+00  1.72803181E+00  1.76842859E+00
  1.78340729E+00  1.87041625E+00  1.88644208E+00  1.94033670E+00  1.99090882E+00
  2.01442632E+00  2.07075807E+00  2.11535611E+00  2.15719288E+00  2.19063158E+00
  2.20675626E+00  2.25698061E+00  2.29588910E+00  2.30815265E+00  2.35851375E+00
  2.37417492E+00  2.45679161E+00  2.46844531E+00  2.49111196E+00  2.52410388E+00
  2.56293464E+00  2.57705328E+00  2.58655076E+00  2.59826909E+00  2.64696807E+00
  2.72573806E+00  2.73822297E+00  2.75204883E+00  2.76981604E+00  2.85428723E+00
  2.86028028E+00  2.93235134E+00  3.07628580E+00  3.08616062E+00  3.18215074E+00
  3.40648223E+00  3.50945220E+00  3.71487087E+00  3.79590954E+00  3.79809239E+00
  3.93629990E+00  4.11428974E+00  4.29048646E+00  9.75539670E+00  2.37190010E+01
  2.37917460E+01  2.39458812E+01  2.42506404E+01  2.59306763E+01  2.59708121E+01
  2.64448673E+01  2.15745102E+02
Alpha MO coefficients                      R   N=       27889
  1.36920008E-07 -2.61034214E-07 -2.77359939E-06 -2.10168209E-06 -1.22622389E-06
 -6.50604956E-07  2.03507071E-05  1.54877689E-05  9.21604654E-06  1.93755524E-05
  3.52923727E-05  2.74309988E-05  2.61256926E-05 -1.63378472E-03 -1.58095402E-04
  4.86649093E-04  2.92254901E-05  7.71793597E-06 -3.40990704E-06 -5.01491720E-06
  1.24512349E-05  9.01098192E-07  1.49210259E-06 -3.10667897E-06  1.18429130E-05
 -1.18327078E-05  5.37436833E-06 -1.59132596E-05 -1.31469974E-05  1.92693908E-05
 -1.99902435E-05  1.79113494E-04  1.21322906E-04 -1.23736169E-04 -6.38781865E-06
  3.74137064E-03 -4.85298039E-04  4.46925017E-04  8.25254041E-04  9.71625429E-06
 -1.21260145E-06  3.34147924E-06 -2.29188622E-06  7.63675183E-06 -6.69369520E-07
  1.95511100E-06  4.13837501E-06 -2.45640369E-06 -4.27092256E-06 -9.56432917E-06
 -2.38120582E-05  8.79583216E-06  2.48452894E-05  2.44328164E-05  9.31354774E-06
 -1.43201619E-05 -5.35080060E-05 -1.18253378E-03 -1.22740334E-03 -3.85586637E-04
  1.67336801E-06  6.39384223E-06  5.94195497E-06 -7.39586602E-06  6.59499976E-07
 -4.58800622E-06  3.43189686E-07 -1.00788184E-06 -1.68223352E-06  6.98468576E-07
  4.41766869E-07  1.01581176E-05  8.42689445E-06 -2.25861492E-06  2.75965569E-06
 -5.88558110E-05 -8.30467920E-05 -1.59287121E-05  5.32766601E-05 -1.58446575E-03
 -2.80471041E-04 -1.63855755E-04 -1.87640022E-04 -5.11338536E-06 -1.86605362E-06
 -3.98523318E-06 -1.46537617E-06 -1.69741761E-06 -3.22473330E-06  3.57931988E-05
  4.26776614E-05 -7.37830175E-07  6.72253627E-06  3.12057036E-07  6.35012469E-06
  1.23063035E-05 -8.33087367E-05  8.08811155E-05  2.23014140E-04  8.20067038E-06
  1.33730834E-05 -1.12103755E-05  2.51929780E-06 -2.15820841E-05 -3.48759475E-05
 -6.84370823E-05 -7.59407129E-07  1.61200226E-07  1.37660973E-06  4.55071832E-06
 -3.25638676E-05  3.71739085E-05  6.12101564E-05 -1.05035619E-05  1.62008993E-06
  1.37800064E-05 -1.07004374E-06 -6.28232135E-05 -1.12202970E-04  1.22319570E-04
 -7.36219389E-06  2.67293837E-06 -1.64390393E-05  1.01950366E-05 -6.47150208E-05
 -2.46135486E-05  9.65618225E-05 -4.73987600E-06  1.24304345E-05  1.55068944E-05
 -7.78476216E-06  3.95248147E-05 -1.36968436E-04 -3.10591838E-04  6.92500133E-07
 -5.41700062E-06 -8.30117950E-07  4.11609677E-01  6.54076222E-01  1.50036572E-02