 Entering Gaussian System, Link 0=g09
 Input=input.dat
 Output=output.dat
 Initial command:
 /cerebro/home/software/apps/g09/l1.exe /scratch/crawdad/Gau-28796.inp -scrdir=/scratch/crawdad/
 Entering Link 1 = /cerebro/home/software/apps/g09/l1.exe PID=     28798.
  
 Copyright (c) 1988,1990,1992,1993,1995,1998,2003,2009, Gaussian, Inc.
                  All Rights Reserved.
  
 This is part of the Gaussian(R) 09 program.  It is based on
 the Gaussian(R) 03 system (copyright 2003, Gaussian, Inc.),
 the Gaussian(R) 98 system (copyright 1998, Gaussian, Inc.),
 the Gaussian(R) 94 system (copyright 1995, Gaussian, Inc.),
 the Gaussian 92(TM) system (copyright 1992, Gaussian, Inc.),
 the Gaussian 90(TM) system (copyright 1990, Gaussian, Inc.),
 the Gaussian 88(TM) system (copyright 1988, Gaussian, Inc.),
 the Gaussian 86(TM) system (copyright 1986, Carnegie Mellon
 University), and the Gaussian 82(TM) system (copyright 1983,
 Carnegie Mellon University). Gaussian is a federally registered
 trademark of Gaussian, Inc.
  
 This software contains proprietary and confidential information,
 including trade secrets, belonging to Gaussian, Inc.
  
 This software is provided under written license and may be
 used, copied, transmitted, or stored only in accord with that
 written license.
  
 The following legend is applicable only to US Government
 contracts under FAR:
  
                    RESTRICTED RIGHTS LEGEND
  
 Use, reproduction and disclosure by the US Government is
 subject to restrictions as set forth in subparagraphs (a)
 and (c) of the Commercial Computer Software - Restricted
 Rights clause in FAR 52.227-19.
  
 Gaussian, Inc.
 340 Quinnipiac St., Bldg. 40, Wallingford CT 06492
  
  
 ---------------------------------------------------------------
 Warning -- This program may not be used in any manner that
 competes with the business of Gaussian, Inc. or will provide
 assistance to any competitor of Gaussian, Inc.  The licensee
 of this program is prohibited from giving any competitor of
 Gaussian, Inc. access to this program.  By using this program,
 the user acknowledges that Gaussian, Inc. is engaged in the
 business of creating and licensing software in the field of
 computational chemistry and represents and warrants to the
 licensee that it is not a competitor of Gaussian, Inc. and that
 it will not use this program in any manner prohibited above.
 ---------------------------------------------------------------
  

 Cite this work as:
 Gaussian 09, Revision A.02,
 M. J. Frisch, G. W. Trucks, H. B. Schlegel, G. E. Scuseria, 
 M. A. Robb, J. R. Cheeseman, G. Scalmani, V. Barone, B. Mennucci, 
 G. A. Petersson, H. Nakatsuji, M. Caricato, X. Li, H. P. Hratchian, 
 A. F. Izmaylov, J. Bloino, G. Zheng, J. L. Sonnenberg, M. Hada, 
 M. Ehara, K. Toyota, R. Fukuda, J. Hasegawa, M. Ishida, T. Nakajima, 
 Y. Honda, O. Kitao, H. Nakai, T. Vreven, J. A. Montgomery, Jr., 
 J. E. Peralta, F. Ogliaro, M. Bearpark, J. J. Heyd, E. Brothers, 
 K. N. Kudin, V. N. Staroverov, R. Kobayashi, J. Normand, 
 K. Raghavachari, A. Rendell, J. C. Burant, S. S. Iyengar, J. Tomasi, 
 M. Cossi, N. Rega, J. M. Millam, M. Klene, J. E. Knox, J. B. Cross, 
 V. Bakken, C. Adamo, J. Jaramillo, R. Gomperts, R. E. Stratmann, 
 O. Yazyev, A. J. Austin, R. Cammi, C. Pomelli, J. W. Ochterski, 
 R. L. Martin, K. Morokuma, V. G. Zakrzewski, G. A. Voth, 
 P. Salvador, J. J. Dannenberg, S. Dapprich, A. D. Daniels, 
 O. Farkas, J. B. Foresman, J. V. Ortiz, J. Cioslowski, 
 and D. J. Fox, Gaussian, Inc., Wallingford CT, 2009.
 
 ******************************************
 Gaussian 09:  EM64L-G09RevA.02 11-Jun-2009
                10-Jul-2013 
 ******************************************
 %chk=vibave
 %mem=1000mb
 %nproc=1
 Will use up to    1 processors via shared memory.
 ----------------------------------------------------------------------
 #P B3LYP/6-311++G** scf(conver=11) int=ultrafine polar=optrot cphf(rdf
 req,conver=11)
 ----------------------------------------------------------------------
 1/38=1,83=21/1;
 2/12=2,17=6,18=5,40=1/2;
 3/5=4,6=6,7=1111,11=2,16=1,25=1,30=1,36=2,74=-5,75=-5/1,2,3;
 4//1;
 5/5=2,6=11,38=5,96=-2,98=1/2;
 8/6=4,10=90,11=11/1;
 10/6=1,7=11,13=10,46=8,60=-2,72=3/2;
 6/7=2,8=2,9=2,10=2,28=1/1;
 99/5=1,9=1/99;
 Leave Link    1 at Wed Jul 10 16:50:08 2013, MaxMem=  131072000 cpu:       0.1
 (Enter /cerebro/home/software/apps/g09/l101.exe)
 -----------------------------
 (R)-3-chloro-1-butene tau=120
 -----------------------------
 Symbolic Z-matrix:
 Charge =  0 Multiplicity = 1
 C                     0.46682   1.76609   0.03386 
 C                     0.0039    0.33966  -0.31876 
 C                    -1.20403  -0.09707   0.42762 
 C                    -2.32629  -0.49299  -0.16352 
 H                    -2.47092  -0.56722  -1.23756 
 H                     1.39106   2.03333  -0.4822 
 H                    -3.15642  -0.79663   0.46701 
 H                    -1.16478  -0.06463   1.51429 
 H                    -0.17702   0.20008  -1.38475 
 H                     0.66955   1.7871    1.10953 
 H                    -0.30323   2.51324  -0.18293 
 Cl                    1.38556  -0.83741   0.02218 
 
 NAtoms=     12 NQM=     12 NQMF=      0 NMic=      0 NMicF=      0 NTot=     12.
                    Isotopes and Nuclear Properties:
 (Nuclear quadrupole moments (NQMom) in fm**2, nuclear magnetic moments (NMagM)
  in nuclear magnetons)

  Atom         1           2           3           4           5           6           7           8           9          10
 IAtWgt=          12          12          12          12           1           1           1           1           1           1
 AtmWgt=  12.0000000  12.0000000  12.0000000  12.0000000   1.0078250   1.0078250   1.0078250   1.0078250   1.0078250   1.0078250
 NucSpn=           0           0           0           0           1           1           1           1           1           1
 AtZEff=   0.0000000   0.0000000   0.0000000   0.0000000   0.0000000   0.0000000   0.0000000   0.0000000   0.0000000   0.0000000
 NQMom=    0.0000000   0.0000000   0.0000000   0.0000000   0.0000000   0.0000000   0.0000000   0.0000000   0.0000000   0.0000000
 NMagM=    0.0000000   0.0000000   0.0000000   0.0000000   2.7928460   2.7928460   2.7928460   2.7928460   2.7928460   2.7928460

  Atom        11          12
 IAtWgt=           1          35
 AtmWgt=   1.0078250  34.9688527
 NucSpn=           1           3
 AtZEff=   0.0000000   0.0000000
 NQMom=    0.0000000  -8.1650000
 NMagM=    2.7928460   0.8218740
 Using perturbation frequencies:    0.071980    0.077357    0.104503    0.128347
 Leave Link  101 at Wed Jul 10 16:50:09 2013, MaxMem=  131072000 cpu:       0.1
 (Enter /cerebro/home/software/apps/g09/l202.exe)
                          Input orientation:                          
 ---------------------------------------------------------------------
 Center     Atomic      Atomic             Coordinates (Angstroms)
 Number     Number       Type             X           Y           Z
 ---------------------------------------------------------------------
      1          6           0        0.466821    1.766089    0.033857
      2          6           0        0.003899    0.339659   -0.318759
      3          6           0       -1.204031   -0.097068    0.427618
      4          6           0       -2.326290   -0.492989   -0.163520
      5          1           0       -2.470924   -0.567225   -1.237557
      6          1           0        1.391057    2.033333   -0.482198
      7          1           0       -3.156424   -0.796630    0.467006
      8          1           0       -1.164778   -0.064627    1.514292
      9          1           0       -0.177017    0.200076   -1.384749
     10          1           0        0.669555    1.787102    1.109526
     11          1           0       -0.303230    2.513236   -0.182930
     12         17           0        1.385558   -0.837409    0.022178
 ---------------------------------------------------------------------
                    Distance matrix (angstroms):
                    1          2          3          4          5
     1  C    0.000000
     2  C    1.540564   0.000000
     3  C    2.533406   1.485566   0.000000
     4  C    3.597757   2.479352   1.328782   0.000000
     5  H    3.961211   2.791304   2.144498   1.086272   0.000000
     6  H    1.091762   2.195325   3.478629   4.505833   4.716818
     7  H    4.459041   3.449090   2.074313   1.085764   1.851506
     8  H    2.864494   2.211183   1.087866   2.085103   3.087280
     9  H    2.208929   1.090206   2.104216   2.567316   2.423308
    10  H    1.094809   2.139669   2.743249   3.974235   4.573211
    11  H    1.094624   2.199366   2.828055   3.623608   3.911569
    12  Cl   2.760872   1.846810   2.723684   3.732415   4.066003
                    6          7          8          9         10
     6  H    0.000000
     7  H    5.439601   0.000000
     8  H    3.862603   2.366282   0.000000
     9  H    2.575712   3.646818   3.074114   0.000000
    10  H    1.764874   4.661181   2.637709   3.075182   0.000000
    11  H    1.786190   4.417957   3.204404   2.609790   1.773139
    12  Cl   2.914719   4.563894   3.054146   2.344665   2.929683
                   11         12
    11  H    0.000000
    12  Cl   3.757777   0.000000
 Stoichiometry    C4H7Cl
 Framework group  C1[X(C4H7Cl)]
 Deg. of freedom    30
 Full point group                 C1      NOp   1
 Largest Abelian subgroup         C1      NOp   1
 Largest concise Abelian subgroup C1      NOp   1
                         Standard orientation:                         
 ---------------------------------------------------------------------
 Center     Atomic      Atomic             Coordinates (Angstroms)
 Number     Number       Type             X           Y           Z
 ---------------------------------------------------------------------
      1          6           0        0.468282    1.766643    0.026899
      2          6           0        0.004447    0.339361   -0.321037
      3          6           0       -1.203804   -0.094115    0.426713
      4          6           0       -2.326292   -0.491251   -0.163174
      5          1           0       -2.470922   -0.568932   -1.236969
      6          1           0        1.392718    2.031582   -0.489986
      7          1           0       -3.156655   -0.792270    0.468306
      8          1           0       -1.164584   -0.058119    1.513276
      9          1           0       -0.176508    0.196383   -1.386570
     10          1           0        0.670976    1.791069    1.102503
     11          1           0       -0.301270    2.513573   -0.192390
     12         17           0        1.385321   -0.837477    0.023849
 ---------------------------------------------------------------------
 Rotational constants (GHZ):      5.5324777      2.7519173      2.0020052
 Leave Link  202 at Wed Jul 10 16:50:09 2013, MaxMem=  131072000 cpu:       0.0
 (Enter /cerebro/home/software/apps/g09/l301.exe)
 Standard basis: 6-311++G(d,p) (5D, 7F)
 Ernie: Thresh=  0.10000D-02 Tol=  0.10000D-05 Strict=F.
 There are   167 symmetry adapted basis functions of A   symmetry.
 Integral buffers will be    131072 words long.
 Raffenetti 2 integral format.
 Two-electron integral symmetry is turned on.
   167 basis functions,   260 primitive gaussians,   172 cartesian basis functions
    24 alpha electrons       24 beta electrons
       nuclear repulsion energy       211.6515425794 Hartrees.
 IExCor=  402 DFT=T Ex+Corr=B3LYP ExCW=0 ScaHFX=  0.200000
 ScaDFX=  0.800000  0.720000  1.000000  0.810000 ScalE2=  1.000000  1.000000
 IRadAn=      5 IRanWt=     -1 IRanGd=            0 ICorTp=0
 NAtoms=   12 NActive=   12 NUniq=   12 SFac= 7.50D-01 NAtFMM=   80 NAOKFM=F Big=F
 Leave Link  301 at Wed Jul 10 16:50:09 2013, MaxMem=  131072000 cpu:       0.1
 (Enter /cerebro/home/software/apps/g09/l302.exe)
 NPDir=0 NMtPBC=     1 NCelOv=     1 NCel=       1 NClECP=     1 NCelD=      1
         NCelK=      1 NCelE2=     1 NClLst=     1 CellRange=     0.0.
 One-electron integrals computed using PRISM.
 NBasis=   167 RedAO= T  NBF=   167
 NBsUse=   167 1.00D-06 NBFU=   167
 Precomputing XC quadrature grid using
 IXCGrd= 2 IRadAn=           5 IRanWt=          -1 IRanGd=           0 AccXCQ= 1.00D-10.
 NRdTot=    1019 NPtTot=      274288 NUsed=      281590 NTot=      281622
 NSgBfM=   172   172   172   172   172 NAtAll=    12    12.
 Leave Link  302 at Wed Jul 10 16:50:09 2013, MaxMem=  131072000 cpu:       0.7
 (Enter /cerebro/home/software/apps/g09/l303.exe)
 DipDrv:  MaxL=2.
 Leave Link  303 at Wed Jul 10 16:50:10 2013, MaxMem=  131072000 cpu:       0.1
 (Enter /cerebro/home/software/apps/g09/l401.exe)
 Harris functional with IExCor=  402 diagonalized for initial guess.
 ExpMin= 3.60D-02 ExpMax= 1.06D+05 ExpMxC= 3.62D+03 IAcc=3 IRadAn=         5 AccDes= 0.00D+00
 HarFok:  IExCor=  402 AccDes= 0.00D+00 IRadAn=         5 IDoV= 1
 ScaDFX=  1.000000  1.000000  1.000000  1.000000
 FoFCou: FMM=F IPFlag=           0 FMFlag=      100000 FMFlg1=           0
         NFxFlg=           0 DoJE=T BraDBF=F KetDBF=T FulRan=T
         Omega=  0.000000  0.000000  1.000000  0.000000  0.000000 ICntrl=     500 IOpCl=  0
         NMat0=    1 NMatS0=    1 NMatT0=    0 NMatD0=    1 NMtDS0=    0 NMtDT0=    0
         I1Cent=           4 NGrid=           0.
 Petite list used in FoFCou.
 Harris En= -616.912666316461    
 Initial guess orbital symmetries:
       Occupied  (A) (A) (A) (A) (A) (A) (A) (A) (A) (A) (A) (A)
                 (A) (A) (A) (A) (A) (A) (A) (A) (A) (A) (A) (A)
       Virtual   (A) (A) (A) (A) (A) (A) (A) (A) (A) (A) (A) (A)
                 (A) (A) (A) (A) (A) (A) (A) (A) (A) (A) (A) (A)
                 (A) (A) (A) (A) (A) (A) (A) (A) (A) (A) (A) (A)
                 (A) (A) (A) (A) (A) (A) (A) (A) (A) (A) (A) (A)
                 (A) (A) (A) (A) (A) (A) (A) (A) (A) (A) (A) (A)
                 (A) (A) (A) (A) (A) (A) (A) (A) (A) (A) (A) (A)
                 (A) (A) (A) (A) (A) (A) (A) (A) (A) (A) (A) (A)
                 (A) (A) (A) (A) (A) (A) (A) (A) (A) (A) (A) (A)
                 (A) (A) (A) (A) (A) (A) (A) (A) (A) (A) (A) (A)
                 (A) (A) (A) (A) (A) (A) (A) (A) (A) (A) (A) (A)
                 (A) (A) (A) (A) (A) (A) (A) (A) (A) (A) (A) (A)
                 (A) (A) (A) (A) (A) (A) (A) (A) (A) (A) (A)
 The electronic state of the initial guess is 1-A.
 Leave Link  401 at Wed Jul 10 16:50:17 2013, MaxMem=  131072000 cpu:       7.5
 (Enter /cerebro/home/software/apps/g09/l502.exe)
 Closed shell SCF:
 Requested convergence on RMS density matrix=1.00D-11 within 128 cycles.
 Requested convergence on MAX density matrix=1.00D-09.
 Requested convergence on             energy=1.00D-09.
 No special actions if energy rises.
 Using DIIS extrapolation, IDIIS=  1040.
 Integral symmetry usage will be decided dynamically.
       281469 words used for storage of precomputed grid.
 Keep R1 ints in memory in canonical form, NReq=113664361.
 IEnd=      390694 IEndB=      390694 NGot=   131072000 MDV=    20042794
 LenX=    20042794 LenY=    20012769
 Symmetry not used in FoFDir.
 MinBra= 0 MaxBra= 2 Meth= 1.
 IRaf=       0 NMat=   1 IRICut=       1 DoRegI=T DoRafI=F ISym2E= 0 JSym2E=0.

 Cycle   1  Pass 1  IDiag  1:
 E= -616.722277194807    
 DIIS: error= 2.60D-02 at cycle   1 NSaved=   1.
 NSaved= 1 IEnMin= 1 EnMin= -616.722277194807     IErMin= 1 ErrMin= 2.60D-02
 ErrMax= 2.60D-02 EMaxC= 1.00D-01 BMatC= 2.04D-01 BMatP= 2.04D-01
 IDIUse=3 WtCom= 7.40D-01 WtEn= 2.60D-01
 Coeff-Com:  0.100D+01
 Coeff-En:   0.100D+01
 Coeff:      0.100D+01
 Gap=     0.402 Goal=   None    Shift=    0.000
 GapD=    0.402 DampG=2.000 DampE=0.500 DampFc=1.0000 IDamp=-1.
 RMSDP=6.58D-03 MaxDP=1.71D-01              OVMax= 2.21D-01

 Cycle   2  Pass 1  IDiag  1:
 E= -616.642298982822     Delta-E=        0.079978211985 Rises=F Damp=F
 DIIS: error= 3.17D-02 at cycle   2 NSaved=   2.
 NSaved= 2 IEnMin= 1 EnMin= -616.722277194807     IErMin= 1 ErrMin= 2.60D-02
 ErrMax= 3.17D-02 EMaxC= 1.00D-01 BMatC= 2.31D-01 BMatP= 2.04D-01
 IDIUse=2 WtCom= 0.00D+00 WtEn= 1.00D+00
 Coeff-En:   0.590D+00 0.410D+00
 Coeff:      0.590D+00 0.410D+00
 Gap=     0.271 Goal=   None    Shift=    0.000
 RMSDP=5.85D-03 MaxDP=1.60D-01 DE= 8.00D-02 OVMax= 1.17D-01

 Cycle   3  Pass 1  IDiag  1:
 E= -616.892024525738     Delta-E=       -0.249725542916 Rises=F Damp=F
 DIIS: error= 2.56D-03 at cycle   3 NSaved=   3.
 NSaved= 3 IEnMin= 3 EnMin= -616.892024525738     IErMin= 3 ErrMin= 2.56D-03
 ErrMax= 2.56D-03 EMaxC= 1.00D-01 BMatC= 2.34D-03 BMatP= 2.04D-01
 IDIUse=3 WtCom= 9.74D-01 WtEn= 2.56D-02
 Coeff-Com:  0.106D+00 0.505D-01 0.844D+00
 Coeff-En:   0.000D+00 0.000D+00 0.100D+01
 Coeff:      0.103D+00 0.492D-01 0.848D+00
 Gap=     0.251 Goal=   None    Shift=    0.000
 RMSDP=1.18D-03 MaxDP=3.80D-02 DE=-2.50D-01 OVMax= 1.89D-02

 Cycle   4  Pass 1  IDiag  1:
 E= -616.892461071534     Delta-E=       -0.000436545796 Rises=F Damp=F
 DIIS: error= 2.99D-03 at cycle   4 NSaved=   4.
 NSaved= 4 IEnMin= 4 EnMin= -616.892461071534     IErMin= 3 ErrMin= 2.56D-03
 ErrMax= 2.99D-03 EMaxC= 1.00D-01 BMatC= 1.87D-03 BMatP= 2.34D-03
 IDIUse=3 WtCom= 9.70D-01 WtEn= 2.99D-02
 Coeff-Com:  0.262D-01-0.604D-02 0.514D+00 0.466D+00
 Coeff-En:   0.000D+00 0.000D+00 0.447D+00 0.553D+00
 Coeff:      0.254D-01-0.586D-02 0.512D+00 0.468D+00
 Gap=     0.248 Goal=   None    Shift=    0.000
 RMSDP=5.13D-04 MaxDP=1.64D-02 DE=-4.37D-04 OVMax= 1.53D-02

 Cycle   5  Pass 1  IDiag  1:
 E= -616.894207929883     Delta-E=       -0.001746858349 Rises=F Damp=F
 DIIS: error= 6.19D-04 at cycle   5 NSaved=   5.
 NSaved= 5 IEnMin= 5 EnMin= -616.894207929883     IErMin= 5 ErrMin= 6.19D-04
 ErrMax= 6.19D-04 EMaxC= 1.00D-01 BMatC= 7.79D-05 BMatP= 1.87D-03
 IDIUse=3 WtCom= 9.94D-01 WtEn= 6.19D-03
 Coeff-Com:  0.786D-02-0.700D-02 0.217D+00 0.241D+00 0.541D+00
 Coeff-En:   0.000D+00 0.000D+00 0.000D+00 0.000D+00 0.100D+01
 Coeff:      0.781D-02-0.696D-02 0.216D+00 0.240D+00 0.544D+00
 Gap=     0.249 Goal=   None    Shift=    0.000
 RMSDP=1.00D-04 MaxDP=3.44D-03 DE=-1.75D-03 OVMax= 6.30D-03

 Cycle   6  Pass 1  IDiag  1:
 E= -616.894278894528     Delta-E=       -0.000070964645 Rises=F Damp=F
 DIIS: error= 2.55D-04 at cycle   6 NSaved=   6.
 NSaved= 6 IEnMin= 6 EnMin= -616.894278894528     IErMin= 6 ErrMin= 2.55D-04
 ErrMax= 2.55D-04 EMaxC= 1.00D-01 BMatC= 1.25D-05 BMatP= 7.79D-05
 IDIUse=3 WtCom= 9.97D-01 WtEn= 2.55D-03
 Coeff-Com:  0.110D-02-0.431D-02 0.684D-01 0.835D-01 0.318D+00 0.533D+00
 Coeff-En:   0.000D+00 0.000D+00 0.000D+00 0.000D+00 0.113D+00 0.887D+00
 Coeff:      0.109D-02-0.430D-02 0.682D-01 0.832D-01 0.318D+00 0.534D+00
 Gap=     0.249 Goal=   None    Shift=    0.000
 RMSDP=3.78D-05 MaxDP=1.19D-03 DE=-7.10D-05 OVMax= 1.82D-03

 Cycle   7  Pass 1  IDiag  1:
 E= -616.894290979936     Delta-E=       -0.000012085408 Rises=F Damp=F
 DIIS: error= 3.01D-05 at cycle   7 NSaved=   7.
 NSaved= 7 IEnMin= 7 EnMin= -616.894290979936     IErMin= 7 ErrMin= 3.01D-05
 ErrMax= 3.01D-05 EMaxC= 1.00D-01 BMatC= 3.13D-07 BMatP= 1.25D-05
 IDIUse=1 WtCom= 1.00D+00 WtEn= 0.00D+00
 Coeff-Com: -0.226D-04-0.158D-02 0.160D-01 0.203D-01 0.980D-01 0.222D+00
 Coeff-Com:  0.646D+00
 Coeff:     -0.226D-04-0.158D-02 0.160D-01 0.203D-01 0.980D-01 0.222D+00
 Coeff:      0.646D+00
 Gap=     0.249 Goal=   None    Shift=    0.000
 RMSDP=8.08D-06 MaxDP=3.32D-04 DE=-1.21D-05 OVMax= 1.45D-04

 Cycle   8  Pass 1  IDiag  1:
 E= -616.894291266045     Delta-E=       -0.000000286110 Rises=F Damp=F
 DIIS: error= 6.56D-06 at cycle   8 NSaved=   8.
 NSaved= 8 IEnMin= 8 EnMin= -616.894291266045     IErMin= 8 ErrMin= 6.56D-06
 ErrMax= 6.56D-06 EMaxC= 1.00D-01 BMatC= 1.55D-08 BMatP= 3.13D-07
 IDIUse=1 WtCom= 1.00D+00 WtEn= 0.00D+00
 Coeff-Com: -0.327D-04-0.362D-03 0.212D-02 0.301D-02 0.196D-01 0.573D-01
 Coeff-Com:  0.254D+00 0.665D+00
 Coeff:     -0.327D-04-0.362D-03 0.212D-02 0.301D-02 0.196D-01 0.573D-01
 Coeff:      0.254D+00 0.665D+00
 Gap=     0.249 Goal=   None    Shift=    0.000
 RMSDP=1.64D-06 MaxDP=3.72D-05 DE=-2.86D-07 OVMax= 3.82D-05

 Cycle   9  Pass 1  IDiag  1:
 E= -616.894291280268     Delta-E=       -0.000000014223 Rises=F Damp=F
 DIIS: error= 1.79D-06 at cycle   9 NSaved=   9.
 NSaved= 9 IEnMin= 9 EnMin= -616.894291280268     IErMin= 9 ErrMin= 1.79D-06
 ErrMax= 1.79D-06 EMaxC= 1.00D-01 BMatC= 6.87D-10 BMatP= 1.55D-08
 IDIUse=1 WtCom= 1.00D+00 WtEn= 0.00D+00
 Coeff-Com: -0.127D-04-0.284D-04-0.124D-03-0.380D-04 0.229D-03 0.360D-02
 Coeff-Com:  0.342D-01 0.223D+00 0.739D+00
 Coeff:     -0.127D-04-0.284D-04-0.124D-03-0.380D-04 0.229D-03 0.360D-02
 Coeff:      0.342D-01 0.223D+00 0.739D+00
 Gap=     0.249 Goal=   None    Shift=    0.000
 RMSDP=5.96D-07 MaxDP=2.41D-05 DE=-1.42D-08 OVMax= 6.90D-06

 Cycle  10  Pass 1  IDiag  1:
 E= -616.894291280932     Delta-E=       -0.000000000664 Rises=F Damp=F
 DIIS: error= 3.11D-07 at cycle  10 NSaved=  10.
 NSaved=10 IEnMin=10 EnMin= -616.894291280932     IErMin=10 ErrMin= 3.11D-07
 ErrMax= 3.11D-07 EMaxC= 1.00D-01 BMatC= 2.09D-11 BMatP= 6.87D-10
 IDIUse=1 WtCom= 1.00D+00 WtEn= 0.00D+00
 Coeff-Com: -0.362D-05 0.432D-07-0.945D-04-0.807D-04-0.441D-03-0.156D-03
 Coeff-Com:  0.536D-02 0.617D-01 0.256D+00 0.678D+00
 Coeff:     -0.362D-05 0.432D-07-0.945D-04-0.807D-04-0.441D-03-0.156D-03
 Coeff:      0.536D-02 0.617D-01 0.256D+00 0.678D+00
 Gap=     0.249 Goal=   None    Shift=    0.000
 RMSDP=9.70D-08 MaxDP=3.52D-06 DE=-6.64D-10 OVMax= 1.38D-06

 Cycle  11  Pass 1  IDiag  1:
 E= -616.894291280954     Delta-E=       -0.000000000022 Rises=F Damp=F
 DIIS: error= 1.10D-07 at cycle  11 NSaved=  11.
 NSaved=11 IEnMin=11 EnMin= -616.894291280954     IErMin=11 ErrMin= 1.10D-07
 ErrMax= 1.10D-07 EMaxC= 1.00D-01 BMatC= 3.74D-12 BMatP= 2.09D-11
 IDIUse=1 WtCom= 1.00D+00 WtEn= 0.00D+00
 Coeff-Com: -0.846D-06 0.187D-05-0.335D-04-0.333D-04-0.224D-03-0.280D-03
 Coeff-Com:  0.525D-04 0.121D-01 0.650D-01 0.334D+00 0.589D+00
 Coeff:     -0.846D-06 0.187D-05-0.335D-04-0.333D-04-0.224D-03-0.280D-03
 Coeff:      0.525D-04 0.121D-01 0.650D-01 0.334D+00 0.589D+00
 Gap=     0.249 Goal=   None    Shift=    0.000
 RMSDP=2.84D-08 MaxDP=8.48D-07 DE=-2.18D-11 OVMax= 4.28D-07

 Cycle  12  Pass 1  IDiag  1:
 E= -616.894291280957     Delta-E=       -0.000000000003 Rises=F Damp=F
 DIIS: error= 1.46D-08 at cycle  12 NSaved=  12.
 NSaved=12 IEnMin=12 EnMin= -616.894291280957     IErMin=12 ErrMin= 1.46D-08
 ErrMax= 1.46D-08 EMaxC= 1.00D-01 BMatC= 7.23D-14 BMatP= 3.74D-12
 IDIUse=1 WtCom= 1.00D+00 WtEn= 0.00D+00
 Coeff-Com: -0.274D-07 0.218D-06-0.859D-06-0.239D-05-0.250D-04-0.219D-04
 Coeff-Com: -0.296D-03-0.146D-02-0.175D-02 0.309D-01 0.131D+00 0.842D+00
 Coeff:     -0.274D-07 0.218D-06-0.859D-06-0.239D-05-0.250D-04-0.219D-04
 Coeff:     -0.296D-03-0.146D-02-0.175D-02 0.309D-01 0.131D+00 0.842D+00
 Gap=     0.249 Goal=   None    Shift=    0.000
 RMSDP=7.16D-09 MaxDP=2.96D-07 DE=-2.73D-12 OVMax= 9.28D-08

 Cycle  13  Pass 1  IDiag  1:
 E= -616.894291280957     Delta-E=        0.000000000000 Rises=F Damp=F
 DIIS: error= 2.28D-09 at cycle  13 NSaved=  13.
 NSaved=13 IEnMin=13 EnMin= -616.894291280957     IErMin=13 ErrMin= 2.28D-09
 ErrMax= 2.28D-09 EMaxC= 1.00D-01 BMatC= 1.62D-15 BMatP= 7.23D-14
 IDIUse=1 WtCom= 1.00D+00 WtEn= 0.00D+00
 Coeff-Com:  0.127D-07 0.288D-07 0.800D-07-0.283D-06-0.403D-05-0.278D-05
 Coeff-Com: -0.871D-04-0.518D-03-0.167D-02 0.482D-03 0.192D-01 0.185D+00
 Coeff-Com:  0.798D+00
 Coeff:      0.127D-07 0.288D-07 0.800D-07-0.283D-06-0.403D-05-0.278D-05
 Coeff:     -0.871D-04-0.518D-03-0.167D-02 0.482D-03 0.192D-01 0.185D+00
 Coeff:      0.798D+00
 Gap=     0.249 Goal=   None    Shift=    0.000
 RMSDP=1.73D-09 MaxDP=7.50D-08 DE=-2.27D-13 OVMax= 1.31D-08

 Cycle  14  Pass 1  IDiag  1:
 E= -616.894291280955     Delta-E=        0.000000000002 Rises=F Damp=F
 DIIS: error= 8.16D-10 at cycle  14 NSaved=  14.
 NSaved=14 IEnMin=13 EnMin= -616.894291280957     IErMin=14 ErrMin= 8.16D-10
 ErrMax= 8.16D-10 EMaxC= 1.00D-01 BMatC= 1.07D-16 BMatP= 1.62D-15
 IDIUse=1 WtCom= 1.00D+00 WtEn= 0.00D+00
 Coeff-Com:  0.587D-08 0.435D-08-0.173D-07-0.193D-07-0.539D-06-0.400D-06
 Coeff-Com: -0.146D-04-0.662D-04-0.381D-03-0.968D-03 0.557D-03 0.169D-01
 Coeff-Com:  0.237D+00 0.747D+00
 Coeff:      0.587D-08 0.435D-08-0.173D-07-0.193D-07-0.539D-06-0.400D-06
 Coeff:     -0.146D-04-0.662D-04-0.381D-03-0.968D-03 0.557D-03 0.169D-01
 Coeff:      0.237D+00 0.747D+00
 Gap=     0.249 Goal=   None    Shift=    0.000
 RMSDP=4.82D-10 MaxDP=2.11D-08 DE= 1.59D-12 OVMax= 3.30D-09

 Cycle  15  Pass 1  IDiag  1:
 E= -616.894291280959     Delta-E=       -0.000000000004 Rises=F Damp=F
 DIIS: error= 1.23D-10 at cycle  15 NSaved=  15.
 NSaved=15 IEnMin=15 EnMin= -616.894291280959     IErMin=15 ErrMin= 1.23D-10
 ErrMax= 1.23D-10 EMaxC= 1.00D-01 BMatC= 3.37D-18 BMatP= 1.07D-16
 IDIUse=1 WtCom= 1.00D+00 WtEn= 0.00D+00
 Coeff-Com:  0.845D-09 0.544D-09-0.174D-08 0.234D-07 0.423D-07 0.127D-06
 Coeff-Com: -0.204D-06 0.390D-05-0.222D-04-0.205D-03-0.683D-03-0.394D-02
 Coeff-Com:  0.129D-01 0.136D+00 0.856D+00
 Coeff:      0.845D-09 0.544D-09-0.174D-08 0.234D-07 0.423D-07 0.127D-06
 Coeff:     -0.204D-06 0.390D-05-0.222D-04-0.205D-03-0.683D-03-0.394D-02
 Coeff:      0.129D-01 0.136D+00 0.856D+00
 Gap=     0.249 Goal=   None    Shift=    0.000
 RMSDP=8.97D-11 MaxDP=3.46D-09 DE=-3.64D-12 OVMax= 4.99D-10

 Cycle  16  Pass 1  IDiag  1:
 E= -616.894291280955     Delta-E=        0.000000000004 Rises=F Damp=F
 DIIS: error= 3.22D-11 at cycle  16 NSaved=  16.
 NSaved=16 IEnMin=15 EnMin= -616.894291280959     IErMin=16 ErrMin= 3.22D-11
 ErrMax= 3.22D-11 EMaxC= 1.00D-01 BMatC= 1.72D-19 BMatP= 3.37D-18
 IDIUse=1 WtCom= 1.00D+00 WtEn= 0.00D+00
 Large coefficients: NSaved= 16 BigCof=    0.00 CofMax=   10.00 Det=-1.30D-18
 Inversion failed.  Reducing to 15 matrices.
 Coeff-Com: -0.189D-10 0.655D-09 0.755D-08 0.226D-07 0.986D-07 0.415D-06
 Coeff-Com:  0.261D-05 0.731D-05-0.122D-04-0.178D-03-0.133D-02-0.445D-02
 Coeff-Com:  0.880D-02 0.216D+00 0.781D+00
 Coeff:     -0.189D-10 0.655D-09 0.755D-08 0.226D-07 0.986D-07 0.415D-06
 Coeff:      0.261D-05 0.731D-05-0.122D-04-0.178D-03-0.133D-02-0.445D-02
 Coeff:      0.880D-02 0.216D+00 0.781D+00
 Gap=     0.249 Goal=   None    Shift=    0.000
 RMSDP=3.77D-11 MaxDP=1.97D-09 DE= 4.09D-12 OVMax= 1.56D-10

 Cycle  17  Pass 1  IDiag  1:
 E= -616.894291280956     Delta-E=       -0.000000000001 Rises=F Damp=F
 DIIS: error= 8.99D-12 at cycle  17 NSaved=  16.
 NSaved=16 IEnMin=14 EnMin= -616.894291280959     IErMin=16 ErrMin= 8.99D-12
 ErrMax= 8.99D-12 EMaxC= 1.00D-01 BMatC= 6.50D-21 BMatP= 1.72D-19
 IDIUse=1 WtCom= 1.00D+00 WtEn= 0.00D+00
 Large coefficients: NSaved= 16 BigCof=    0.00 CofMax=   10.00 Det=-5.92D-20
 Inversion failed.  Reducing to 15 matrices.
 Coeff-Com:  0.680D-09 0.163D-08 0.554D-08 0.275D-07 0.117D-06 0.509D-06
 Coeff-Com:  0.284D-05 0.210D-05-0.354D-04-0.282D-03-0.188D-02-0.281D-02
 Coeff-Com:  0.282D-01 0.225D+00 0.752D+00
 Coeff:      0.680D-09 0.163D-08 0.554D-08 0.275D-07 0.117D-06 0.509D-06
 Coeff:      0.284D-05 0.210D-05-0.354D-04-0.282D-03-0.188D-02-0.281D-02
 Coeff:      0.282D-01 0.225D+00 0.752D+00
 Gap=     0.249 Goal=   None    Shift=    0.000
 RMSDP=1.83D-11 MaxDP=1.37D-09 DE=-7.96D-13 OVMax= 1.94D-11

 Cycle  18  Pass 1  IDiag  1:
 E= -616.894291280957     Delta-E=       -0.000000000001 Rises=F Damp=F
 DIIS: error= 2.31D-12 at cycle  18 NSaved=  16.
 NSaved=16 IEnMin=13 EnMin= -616.894291280959     IErMin=16 ErrMin= 2.31D-12
 ErrMax= 2.31D-12 EMaxC= 1.00D-01 BMatC= 2.67D-22 BMatP= 6.50D-21
 IDIUse=1 WtCom= 1.00D+00 WtEn= 0.00D+00
 Large coefficients: NSaved= 16 BigCof=    0.00 CofMax=   10.00 Det=-2.54D-21
 Inversion failed.  Reducing to 15 matrices.
 Coeff-Com:  0.109D-09 0.538D-09 0.494D-08 0.281D-07 0.139D-06 0.741D-06
 Coeff-Com:  0.980D-06-0.493D-05-0.428D-04-0.316D-03-0.839D-03 0.941D-03
 Coeff-Com:  0.369D-01 0.193D+00 0.770D+00
 Coeff:      0.109D-09 0.538D-09 0.494D-08 0.281D-07 0.139D-06 0.741D-06
 Coeff:      0.980D-06-0.493D-05-0.428D-04-0.316D-03-0.839D-03 0.941D-03
 Coeff:      0.369D-01 0.193D+00 0.770D+00
 Gap=     0.249 Goal=   None    Shift=    0.000
 RMSDP=1.21D-11 MaxDP=9.40D-10 DE=-1.48D-12 OVMax= 4.69D-12

 Cycle  19  Pass 1  IDiag  1:
 E= -616.894291280957     Delta-E=        0.000000000000 Rises=F Damp=F
 DIIS: error= 2.93D-12 at cycle  19 NSaved=  16.
 NSaved=16 IEnMin=12 EnMin= -616.894291280959     IErMin=15 ErrMin= 2.31D-12
 ErrMax= 2.93D-12 EMaxC= 1.00D-01 BMatC= 3.17D-22 BMatP= 2.67D-22
 IDIUse=1 WtCom= 1.00D+00 WtEn= 0.00D+00
 Large coefficients: NSaved= 16 BigCof=    0.00 CofMax=   10.00 Det=-6.66D-22
 Inversion failed.  Reducing to 15 matrices.
 Coeff-Com:  0.200D-10 0.153D-08 0.894D-08 0.415D-07 0.288D-06 0.651D-06
 Coeff-Com: -0.595D-06-0.749D-05-0.109D-03-0.498D-03-0.151D-02 0.122D-01
 Coeff-Com:  0.881D-01 0.541D+00 0.361D+00
 Coeff:      0.200D-10 0.153D-08 0.894D-08 0.415D-07 0.288D-06 0.651D-06
 Coeff:     -0.595D-06-0.749D-05-0.109D-03-0.498D-03-0.151D-02 0.122D-01
 Coeff:      0.881D-01 0.541D+00 0.361D+00
 Gap=     0.249 Goal=   None    Shift=    0.000
 RMSDP=9.20D-12 MaxDP=7.28D-10 DE=-4.55D-13 OVMax= 3.62D-12

 SCF Done:  E(RB3LYP) =  -616.894291281     A.U. after   19 cycles
             Convg  =    0.9198D-11             -V/T =  2.0031
 KE= 6.150075536374D+02 PE=-1.880030809525D+03 EE= 4.364774220274D+02
 Leave Link  502 at Wed Jul 10 16:54:33 2013, MaxMem=  131072000 cpu:     255.3
 (Enter /cerebro/home/software/apps/g09/l801.exe)
 Range of M.O.s used for correlation:     1   167
 NBasis=   167 NAE=    24 NBE=    24 NFC=     0 NFV=     0
 NROrb=    167 NOA=    24 NOB=    24 NVA=   143 NVB=   143

 **** Warning!!: The largest alpha MO coefficient is  0.65131705D+02

 Leave Link  801 at Wed Jul 10 16:54:33 2013, MaxMem=  131072000 cpu:       0.0
 (Enter /cerebro/home/software/apps/g09/l1002.exe)
 Minotr:  Closed shell wavefunction.
          Direct CPHF calculation.
          Differentiating once with respect to magnetic field using GIAOs.
          Electric field/nuclear overlap derivatives assumed to be zero.
          Requested convergence is 1.0D-11 RMS, and 1.0D-10 maximum.
          NewPWx=F KeepS1=T KeepF1=T KeepIn=T MapXYZ=F SortEE=F KeepMc=T.
          MDV=     131071900 using IRadAn=       4.
 Generate precomputed XC quadrature information.
          Solving linear equations separately, MaxMat=       0.
          Doing perturbations at frequencies    0.071980    0.077357    0.104503    0.128347
 FoFCou: FMM=F IPFlag=           0 FMFlag=           0 FMFlg1=           0
         NFxFlg=           0 DoJE=F BraDBF=F KetDBF=T FulRan=T
         Omega=  0.000000  0.000000  1.000000  0.000000  0.000000 ICntrl=    6100 IOpCl=  0
         NMat0=    1 NMatS0=    1 NMatT0=    0 NMatD0=    1 NMtDS0=    0 NMtDT0=    0
         I1Cent=           7 NGrid=          12.
 Symmetry not used in FoFCou.
 Integrals replicated using symmetry in FoFDir.
 MinBra= 0 MaxBra= 2 Meth= 1.
 IRaf=       0 NMat=  24 IRICut=      30 DoRegI=T DoRafI=T ISym2E= 2 JSym2E=2.
 CalDSu exits because no D1Ps are significant.
          There are    12 degrees of freedom in the 1st order CPHF.  IDoFFX=0.
 LinEq1:  Iter=  0 NonCon=    12 RMS=5.67D-02 Max=1.43D+00
 AX will form    12 AO Fock derivatives at one time.
 LinEq1:  Iter=  1 NonCon=    12 RMS=1.66D-02 Max=8.03D-01
 LinEq1:  Iter=  2 NonCon=    12 RMS=1.25D-02 Max=6.51D-01
 LinEq1:  Iter=  3 NonCon=    12 RMS=6.25D-03 Max=1.77D-01
 LinEq1:  Iter=  4 NonCon=    12 RMS=3.90D-03 Max=6.34D-02
 LinEq1:  Iter=  5 NonCon=    12 RMS=1.64D-03 Max=5.25D-02
 LinEq1:  Iter=  6 NonCon=    12 RMS=8.33D-04 Max=1.63D-02
 LinEq1:  Iter=  7 NonCon=    12 RMS=3.22D-04 Max=5.70D-03
 LinEq1:  Iter=  8 NonCon=    12 RMS=1.38D-04 Max=2.80D-03
 LinEq1:  Iter=  9 NonCon=    12 RMS=5.20D-05 Max=8.07D-04
 LinEq1:  Iter= 10 NonCon=    12 RMS=1.93D-05 Max=3.10D-04
 LinEq1:  Iter= 11 NonCon=    12 RMS=7.09D-06 Max=1.47D-04
 LinEq1:  Iter= 12 NonCon=    12 RMS=3.08D-06 Max=4.69D-05
 LinEq1:  Iter= 13 NonCon=    12 RMS=1.29D-06 Max=2.30D-05
 LinEq1:  Iter= 14 NonCon=    12 RMS=4.23D-07 Max=7.47D-06
 LinEq1:  Iter= 15 NonCon=    12 RMS=1.15D-07 Max=1.65D-06
 LinEq1:  Iter= 16 NonCon=    12 RMS=3.67D-08 Max=7.58D-07
 LinEq1:  Iter= 17 NonCon=    12 RMS=8.75D-09 Max=1.76D-07
 LinEq1:  Iter= 18 NonCon=    12 RMS=2.17D-09 Max=5.25D-08
 LinEq1:  Iter= 19 NonCon=    12 RMS=6.14D-10 Max=1.63D-08
 LinEq1:  Iter= 20 NonCon=    12 RMS=1.73D-10 Max=3.20D-09
 LinEq1:  Iter= 21 NonCon=     8 RMS=6.04D-11 Max=1.58D-09
 LinEq1:  Iter= 22 NonCon=     3 RMS=1.34D-11 Max=2.40D-10
 LinEq1:  Iter= 23 NonCon=     0 RMS=5.40D-12 Max=8.41D-11
 Linear equations converged to 1.000D-11 1.000D-10 after    23 iterations.
 FullF1:  Do perturbations    1 to    12.
 Dipole-magnetic dipole polarizability for W=    0.071980:
                 1             2             3 
      1   0.439439D+01 -0.906286D+00 -0.740099D+01
      2  -0.792863D+01 -0.474890D+01 -0.196321D+02
      3   0.241753D+02  0.914378D+01  0.140603D+01
 w=    0.071980 a.u., Optical Rotation Beta=     -0.3505 au.
 Molar Mass =     90.5523 grams/mole, [Alpha] ( 6330.0 A) =     -129.67 deg.
 Dipole-magnetic dipole polarizability for W=    0.077357:
                 1             2             3 
      1   0.445672D+01 -0.894712D+00 -0.739194D+01
      2  -0.806223D+01 -0.479396D+01 -0.197049D+02
      3   0.243740D+02  0.922569D+01  0.142885D+01
 w=    0.077357 a.u., Optical Rotation Beta=     -0.3639 au.
 Molar Mass =     90.5523 grams/mole, [Alpha] ( 5890.0 A) =     -155.48 deg.
 Dipole-magnetic dipole polarizability for W=    0.104503:
                 1             2             3 
      1   0.488923D+01 -0.806581D+00 -0.732126D+01
      2  -0.897192D+01 -0.509022D+01 -0.201746D+02
      3   0.257487D+02  0.979329D+01  0.158886D+01
 w=    0.104503 a.u., Optical Rotation Beta=     -0.4626 au.
 Molar Mass =     90.5523 grams/mole, [Alpha] ( 4360.0 A) =     -360.75 deg.
 Dipole-magnetic dipole polarizability for W=    0.128347:
                 1             2             3 
      1   0.550894D+01 -0.660685D+00 -0.720336D+01
      2  -0.102168D+02 -0.546831D+01 -0.207546D+02
      3   0.277127D+02  0.106039D+02  0.182213D+01
 w=    0.128347 a.u., Optical Rotation Beta=     -0.6209 au.
 Molar Mass =     90.5523 grams/mole, [Alpha] ( 3550.0 A) =     -730.35 deg.
 End of Minotr Frequency-dependent properties on file   721 Mask=       2 NFrqRd=     4 NDeriv=     1 LenFil=      42:
 Frequencies=    0.071980    0.077357    0.104503    0.128347
 Property number 2 -- FD Optical Rotation Tensor frequency  1    0.071980:
                 1             2             3 
      1   0.439439D+01 -0.906286D+00 -0.740099D+01
      2  -0.792863D+01 -0.474890D+01 -0.196321D+02
      3   0.241753D+02  0.914378D+01  0.140603D+01
 Property number 2 -- FD Optical Rotation Tensor frequency  2    0.077357:
                 1             2             3 
      1   0.445672D+01 -0.894712D+00 -0.739194D+01
      2  -0.806223D+01 -0.479396D+01 -0.197049D+02
      3   0.243740D+02  0.922569D+01  0.142885D+01
 Property number 2 -- FD Optical Rotation Tensor frequency  3    0.104503:
                 1             2             3 
      1   0.488923D+01 -0.806581D+00 -0.732126D+01
      2  -0.897192D+01 -0.509022D+01 -0.201746D+02
      3   0.257487D+02  0.979329D+01  0.158886D+01
 Property number 2 -- FD Optical Rotation Tensor frequency  4    0.128347:
                 1             2             3 
      1   0.550894D+01 -0.660685D+00 -0.720336D+01
      2  -0.102168D+02 -0.546831D+01 -0.207546D+02
      3   0.277127D+02  0.106039D+02  0.182213D+01
 End of Minotr Frequency-dependent properties file   722 does not exist.
 Leave Link 1002 at Wed Jul 10 17:19:08 2013, MaxMem=  131072000 cpu:    1474.5
 (Enter /cerebro/home/software/apps/g09/l601.exe)
 Copying SCF densities to generalized density rwf, IOpCl= 0 IROHF=0.

 **********************************************************************

            Population analysis using the SCF density.

 **********************************************************************

 Orbital symmetries:
       Occupied  (A) (A) (A) (A) (A) (A) (A) (A) (A) (A) (A) (A)
                 (A) (A) (A) (A) (A) (A) (A) (A) (A) (A) (A) (A)
       Virtual   (A) (A) (A) (A) (A) (A) (A) (A) (A) (A) (A) (A)
                 (A) (A) (A) (A) (A) (A) (A) (A) (A) (A) (A) (A)
                 (A) (A) (A) (A) (A) (A) (A) (A) (A) (A) (A) (A)
                 (A) (A) (A) (A) (A) (A) (A) (A) (A) (A) (A) (A)
                 (A) (A) (A) (A) (A) (A) (A) (A) (A) (A) (A) (A)
                 (A) (A) (A) (A) (A) (A) (A) (A) (A) (A) (A) (A)
                 (A) (A) (A) (A) (A) (A) (A) (A) (A) (A) (A) (A)
                 (A) (A) (A) (A) (A) (A) (A) (A) (A) (A) (A) (A)
                 (A) (A) (A) (A) (A) (A) (A) (A) (A) (A) (A) (A)
                 (A) (A) (A) (A) (A) (A) (A) (A) (A) (A) (A) (A)
                 (A) (A) (A) (A) (A) (A) (A) (A) (A) (A) (A) (A)
                 (A) (A) (A) (A) (A) (A) (A) (A) (A) (A) (A)
 The electronic state is 1-A.
 Alpha  occ. eigenvalues -- -101.53492 -10.24722 -10.19292 -10.18360 -10.18252
 Alpha  occ. eigenvalues --   -9.44940  -7.21376  -7.20428  -7.20415  -0.86812
 Alpha  occ. eigenvalues --   -0.78838  -0.73944  -0.64146  -0.57664  -0.48490
 Alpha  occ. eigenvalues --   -0.47613  -0.44155  -0.41756  -0.40275  -0.37462
 Alpha  occ. eigenvalues --   -0.36810  -0.30559  -0.29895  -0.28116
 Alpha virt. eigenvalues --   -0.03248  -0.00727   0.00618   0.00737   0.02225
 Alpha virt. eigenvalues --    0.02830   0.03902   0.04106   0.06480   0.06491
 Alpha virt. eigenvalues --    0.07206   0.08340   0.08817   0.09892   0.11079
 Alpha virt. eigenvalues --    0.11519   0.11825   0.12186   0.12913   0.13036
 Alpha virt. eigenvalues --    0.13587   0.14168   0.15124   0.15693   0.15998
 Alpha virt. eigenvalues --    0.16499   0.17285   0.18867   0.19030   0.21533
 Alpha virt. eigenvalues --    0.21860   0.22392   0.24819   0.26076   0.26948
 Alpha virt. eigenvalues --    0.29223   0.33950   0.35697   0.39337   0.42577
 Alpha virt. eigenvalues --    0.43086   0.44427   0.45731   0.48136   0.48667
 Alpha virt. eigenvalues --    0.49513   0.52560   0.52905   0.56965   0.58826
 Alpha virt. eigenvalues --    0.59601   0.61958   0.63383   0.64691   0.66122
 Alpha virt. eigenvalues --    0.66583   0.69427   0.70800   0.73001   0.74047
 Alpha virt. eigenvalues --    0.78773   0.81833   0.83236   0.86375   0.88922
 Alpha virt. eigenvalues --    0.90204   0.93675   0.96110   1.00375   1.03304
 Alpha virt. eigenvalues --    1.06677   1.08446   1.11919   1.18687   1.19841
 Alpha virt. eigenvalues --    1.29877   1.37400   1.43480   1.45345   1.46773
 Alpha virt. eigenvalues --    1.50946   1.54046   1.55743   1.58215   1.58912
 Alpha virt. eigenvalues --    1.63036   1.67807   1.69175   1.70239   1.73001
 Alpha virt. eigenvalues --    1.76789   1.79421   1.87102   1.88495   1.93421
 Alpha virt. eigenvalues --    1.98623   2.01627   2.06543   2.11935   2.18155
 Alpha virt. eigenvalues --    2.19414   2.20397   2.24911   2.30183   2.30775
 Alpha virt. eigenvalues --    2.35256   2.37667   2.45067   2.46504   2.48979
 Alpha virt. eigenvalues --    2.53285   2.56335   2.57078   2.58724   2.60108
 Alpha virt. eigenvalues --    2.64259   2.72310   2.73230   2.74242   2.77728
 Alpha virt. eigenvalues --    2.85066   2.87069   2.93028   3.07129   3.08468
 Alpha virt. eigenvalues --    3.18834   3.40850   3.50323   3.71452   3.78791
 Alpha virt. eigenvalues --    3.79284   3.94639   4.11229   4.27887   9.75521
 Alpha virt. eigenvalues --   23.71406  23.79704  23.93981  24.26218  25.92818
 Alpha virt. eigenvalues --   25.97990  26.44990 215.74499
          Condensed to atoms (all electrons):
              1          2          3          4          5          6
     1  C    5.406874   0.145583  -0.019257   0.109468  -0.005943   0.371144
     2  C    0.145583   5.427807   0.011837  -0.099448  -0.023879  -0.043647
     3  C   -0.019257   0.011837   5.375027   0.391884  -0.038253   0.021513
     4  C    0.109468  -0.099448   0.391884   5.401690   0.389383  -0.012710
     5  H   -0.005943  -0.023879  -0.038253   0.389383   0.556481   0.000474
     6  H    0.371144  -0.043647   0.021513  -0.012710   0.000474   0.544121
     7  H    0.002893   0.022326  -0.010476   0.379805  -0.038377   0.000393
     8  H   -0.016189  -0.018416   0.329206  -0.029011   0.015364  -0.001620
     9  H   -0.032299   0.469363  -0.144300   0.014045   0.011141  -0.002054
    10  H    0.399230  -0.013337  -0.052088  -0.000461   0.002290  -0.018516
    11  H    0.366909  -0.054805   0.024488   0.006438  -0.000693  -0.026816
    12  Cl  -0.049894   0.012778   0.006673   0.067249   0.001130   0.012837
              7          8          9         10         11         12
     1  C    0.002893  -0.016189  -0.032299   0.399230   0.366909  -0.049894
     2  C    0.022326  -0.018416   0.469363  -0.013337  -0.054805   0.012778
     3  C   -0.010476   0.329206  -0.144300  -0.052088   0.024488   0.006673
     4  C    0.379805  -0.029011   0.014045  -0.000461   0.006438   0.067249
     5  H   -0.038377   0.015364   0.011141   0.002290  -0.000693   0.001130
     6  H    0.000393  -0.001620  -0.002054  -0.018516  -0.026816   0.012837
     7  H    0.546309  -0.022489  -0.002776  -0.000817   0.000295  -0.005115
     8  H   -0.022489   0.550512   0.005663   0.004054  -0.002641   0.019128
     9  H   -0.002776   0.005663   0.515402   0.007372  -0.010722  -0.044888
    10  H   -0.000817   0.004054   0.007372   0.541743  -0.033959   0.008325
    11  H    0.000295  -0.002641  -0.010722  -0.033959   0.577675   0.018871
    12  Cl  -0.005115   0.019128  -0.044888   0.008325   0.018871  17.009059
 Mulliken atomic charges:
              1
     1  C   -0.678517
     2  C    0.163839
     3  C    0.103746
     4  C   -0.618331
     5  H    0.130883
     6  H    0.154882
     7  H    0.128030
     8  H    0.166440
     9  H    0.214052
    10  H    0.156167
    11  H    0.134961
    12  Cl  -0.056151
 Sum of Mulliken atomic charges =   0.00000
 Mulliken charges with hydrogens summed into heavy atoms:
              1
     1  C   -0.232508
     2  C    0.377891
     3  C    0.270186
     4  C   -0.359418
    12  Cl  -0.056151
 Sum of Mulliken charges with hydrogens summed into heavy atoms =   0.00000
 Electronic spatial extent (au):  <R**2>=            629.0252
 Charge=              0.0000 electrons
 Dipole moment (field-independent basis, Debye):
    X=             -1.6882    Y=              1.5091    Z=             -0.3132  Tot=              2.2859
 Quadrupole moment (field-independent basis, Debye-Ang):
   XX=            -39.4711   YY=            -39.9531   ZZ=            -37.1694
   XY=              2.3378   XZ=              0.0634   YZ=             -0.1120
 Traceless Quadrupole moment (field-independent basis, Debye-Ang):
   XX=             -0.6065   YY=             -1.0886   ZZ=              1.6951
   XY=              2.3378   XZ=              0.0634   YZ=             -0.1120
 Octapole moment (field-independent basis, Debye-Ang**2):
  XXX=             -0.7956  YYY=              1.8104  ZZZ=             -0.4118  XYY=              4.3599
  XXY=             -4.6853  XXZ=              0.0599  XZZ=             -1.3734  YZZ=             -0.7582
  YYZ=             -0.3163  XYZ=             -0.4412
 Hexadecapole moment (field-independent basis, Debye-Ang**3):
 XXXX=           -492.4592 YYYY=           -277.3123 ZZZZ=            -81.0770 XXXY=              8.9871
 XXXZ=             -1.7591 YYYX=             -8.6726 YYYZ=             -2.2447 ZZZX=              1.0059
 ZZZY=              1.3787 XXYY=           -129.5640 XXZZ=            -94.8223 YYZZ=            -62.1672
 XXYZ=             -2.9883 YYXZ=              0.6334 ZZXY=              1.7438
 N-N= 2.116515425794D+02 E-N=-1.880030809525D+03  KE= 6.150075536374D+02
 No NMR shielding tensors so no spin-rotation constants.
 Leave Link  601 at Wed Jul 10 17:19:08 2013, MaxMem=  131072000 cpu:       0.3
 (Enter /cerebro/home/software/apps/g09/l9999.exe)
 AllDun Frequency-dependent properties on file 20721 Mask=       2 NFrqRd=     4 NDeriv=     1 LenFil=      42:
 Frequencies=    0.071980    0.077357    0.104503    0.128347
 Property number 2 -- FD Optical Rotation Tensor frequency  1    0.071980:
                 1             2             3 
      1   0.440101D+01 -0.875489D+00 -0.739126D+01
      2  -0.800330D+01 -0.472006D+01 -0.196567D+02
      3   0.241429D+02  0.913940D+01  0.137057D+01
 Property number 2 -- FD Optical Rotation Tensor frequency  2    0.077357:
                 1             2             3 
      1   0.446343D+01 -0.863870D+00 -0.738213D+01
      2  -0.813748D+01 -0.476522D+01 -0.197297D+02
      3   0.243411D+02  0.922121D+01  0.139341D+01
 Property number 2 -- FD Optical Rotation Tensor frequency  3    0.104503:
                 1             2             3 
      1   0.489656D+01 -0.775469D+00 -0.731086D+01
      2  -0.905125D+01 -0.506234D+01 -0.202008D+02
      3   0.257124D+02  0.978821D+01  0.155366D+01
 Property number 2 -- FD Optical Rotation Tensor frequency  4    0.128347:
                 1             2             3 
      1   0.551709D+01 -0.629270D+00 -0.719213D+01
      2  -0.103020D+02 -0.544191D+01 -0.207827D+02
      3   0.276717D+02  0.105981D+02  0.178759D+01
 1\1\GINC-COMPUTE-0-102\SP\RB3LYP\6-311++G(d,p)\C4H7Cl1\CRAWDAD\10-Jul-
 2013\0\\#P B3LYP/6-311++G** scf(conver=11) int=ultrafine polar=optrot 
 cphf(rdfreq,conver=11)\\(R)-3-chloro-1-butene tau=120\\0,1\C,0,0.46682
 075,1.76608884,0.03385653\C,0,0.00389938,0.33965906,-0.31875921\C,0,-1
 .20403104,-0.09706791,0.42761797\C,0,-2.32629018,-0.49298906,-0.163519
 5\H,0,-2.47092421,-0.5672245,-1.2375571\H,0,1.39105713,2.03333343,-0.4
 8219799\H,0,-3.15642404,-0.79662954,0.46700627\H,0,-1.16477767,-0.0646
 2748,1.51429181\H,0,-0.17701729,0.20007553,-1.38474892\H,0,0.66955459,
 1.78710168,1.10952587\H,0,-0.30322958,2.51323553,-0.18293047\Cl,0,1.38
 555754,-0.83740856,0.02217756\\Version=EM64L-G09RevA.02\State=1-A\HF=-
 616.8942913\RMSD=9.198e-12\Dipole=-0.6645964,0.5936755,-0.1212238\Quad
 rupole=-0.4532103,-0.8064873,1.2596976,1.738183,0.0529847,-0.0901426\P
 G=C01 [X(C4H7Cl1)]\\@


 ARTHROPOD AXIOM: A COMPUTER SYSTEM IS LIKE A SPIDER'S WEB.
 YOU CANNOT PULL ON ONE END WITHOUT MAKING THE OTHER END MOVE.
     -- GREG WETTSTEIN
 Job cpu time:  0 days  0 hours 28 minutes 58.8 seconds.
 File lengths (MBytes):  RWF=    119 Int=      0 D2E=      0 Chk=      2 Scr=      1
 Normal termination of Gaussian 09 at Wed Jul 10 17:19:08 2013.
