(R)-3-chloro-1-butene tau=120                                           
SP        RB3LYP                                                      6-311++G(d,p)       
Number of atoms                            I               12
Info1-9                                    I   N=           9
          26          26           0           0           0         110
           1          18        -502
Full Title                                 C   N=           3
(R)-3-chloro-1-butene tau=120       
Route                                      C   N=           7
#P B3LYP/6-311++G** scf(conver=11) int=ultrafine polar=optro
t cphf(rdfreq,conver=11)
Charge                                     I                0
Multiplicity                               I                1
Number of electrons                        I               48
Number of alpha electrons                  I               24
Number of beta electrons                   I               24
Number of basis functions                  I              167
Number of independent functions            I              167
Number of point charges in /Mol/           I                0
Number of translation vectors              I                0
Atomic numbers                             I   N=          12
           6           6           6           6           1           1
           1           1           1           1           1          17
Nuclear charges                            R   N=          12
  6.00000000E+00  6.00000000E+00  6.00000000E+00  6.00000000E+00  1.00000000E+00
  1.00000000E+00  1.00000000E+00  1.00000000E+00  1.00000000E+00  1.00000000E+00
  1.00000000E+00  1.70000000E+01
Current cartesian coordinates              R   N=          36
  8.84924660E-01  3.33847165E+00  5.08310821E-02  8.40450590E-03  6.41299423E-01
 -6.06672584E-01 -2.27486079E+00 -1.77852315E-01  8.06370864E-01 -4.39605572E+00
 -9.28329485E-01 -3.08354170E-01 -4.66936565E+00 -1.07512513E+00 -2.33753175E+00
  2.63185557E+00  3.83913425E+00 -9.25939936E-01 -5.96521423E+00 -1.49717292E+00
  8.84970854E-01 -2.20074411E+00 -1.09828750E-01  2.85967742E+00 -3.33550983E-01
  3.71109336E-01 -2.62023843E+00  1.26796153E+00  3.38463027E+00  2.08342936E+00
 -5.69317873E-01  4.74996512E+00 -3.63563593E-01  2.61787646E+00 -1.58260281E+00
  4.50673486E-02
Number of symbols in /Mol/                 I                0
Force Field                                I                0
Atom Types                                 C   N=          12
                                                            
                                                            
                        
Int Atom Types                             I   N=          12
           0           0           0           0           0           0
           0           0           0           0           0           0
MM charges                                 R   N=          12
  0.00000000E+00  0.00000000E+00  0.00000000E+00  0.00000000E+00  0.00000000E+00
  0.00000000E+00  0.00000000E+00  0.00000000E+00  0.00000000E+00  0.00000000E+00
  0.00000000E+00  0.00000000E+00
Integer atomic weights                     I   N=          12
          12          12          12          12           1           1
           1           1           1           1           1          35
Real atomic weights                        R   N=          12
  1.20000000E+01  1.20000000E+01  1.20000000E+01  1.20000000E+01  1.00782504E+00
  1.00782504E+00  1.00782504E+00  1.00782504E+00  1.00782504E+00  1.00782504E+00
  1.00782504E+00  3.49688527E+01
Atom fragment info                         I   N=          12
           0           0           0           0           0           0
           0           0           0           0           0           0
Atom residue num                           I   N=          12
           0           0           0           0           0           0
           0           0           0           0           0           0
Nuclear spins                              I   N=          12
           0           0           0           0           1           1
           1           1           1           1           1           3
Nuclear ZEff                               R   N=          12
 -3.60000000E+00 -3.60000000E+00 -3.60000000E+00 -3.60000000E+00 -1.00000000E+00
 -1.00000000E+00 -1.00000000E+00 -1.00000000E+00 -1.00000000E+00 -1.00000000E+00
 -1.00000000E+00 -1.42400000E+01
Nuclear ZNuc                               R   N=          12
  6.00000000E+00  6.00000000E+00  6.00000000E+00  6.00000000E+00  1.00000000E+00
  1.00000000E+00  1.00000000E+00  1.00000000E+00  1.00000000E+00  1.00000000E+00
  1.00000000E+00  1.70000000E+01
Nuclear QMom                               R   N=          12
  0.00000000E+00  0.00000000E+00  0.00000000E+00  0.00000000E+00  0.00000000E+00
  0.00000000E+00  0.00000000E+00  0.00000000E+00  0.00000000E+00  0.00000000E+00
  0.00000000E+00 -8.16500000E+00
Nuclear GFac                               R   N=          12
  0.00000000E+00  0.00000000E+00  0.00000000E+00  0.00000000E+00  2.79284600E+00
  2.79284600E+00  2.79284600E+00  2.79284600E+00  2.79284600E+00  2.79284600E+00
  2.79284600E+00  8.21874000E-01
MicOpt                                     I   N=          12
          -1          -1          -1          -1          -1          -1
          -1          -1          -1          -1          -1          -1
Number of residues                         I                0
Number of secondary structures             I                0
SymInf integers                            I   N=          26
           1           1           1           1           1           0
           0           0           0           0           0           0
           0           0           0           0           0           0
           0           0           0           0           0           0
           0           0
RotTr to input orientation                 R   N=          12
  9.99999786E-01  6.52420875E-04 -4.93882803E-05 -6.52254539E-04  9.99994355E-01
  3.29618363E-03  5.15385005E-05 -3.29615071E-03  9.99994566E-01 -5.86186354E-04
 -1.43836859E-03  2.18825286E-03
Number of contracted shells                I               72
Number of primitive shells                 I              126
Pure/Cartesian d shells                    I                0
Pure/Cartesian f shells                    I                0
Highest angular momentum                   I                2
Largest degree of contraction              I                6
Shell types                                I   N=          72
           0          -1          -1          -1          -1          -2
           0          -1          -1          -1          -1          -2
           0          -1          -1          -1          -1          -2
           0          -1          -1          -1          -1          -2
           0           0           0           0           1           0
           0           0           0           1           0           0
           0           0           1           0           0           0
           0           1           0           0           0           0
           1           0           0           0           0           1
           0           0           0           0           1           0
           0           0           0           0           0          -1
           1           1           1           1           1          -2
Number of primitives per shell             I   N=          72
           6           3           1           1           1           1
           6           3           1           1           1           1
           6           3           1           1           1           1
           6           3           1           1           1           1
           3           1           1           1           1           3
           1           1           1           1           3           1
           1           1           1           3           1           1
           1           1           3           1           1           1
           1           3           1           1           1           1
           3           1           1           1           1           6
           3           1           1           1           1           1
           5           2           1           1           1           1
Shell to atom map                          I   N=          72
           1           1           1           1           1           1
           2           2           2           2           2           2
           3           3           3           3           3           3
           4           4           4           4           4           4
           5           5           5           5           5           6
           6           6           6           6           7           7
           7           7           7           8           8           8
           8           8           9           9           9           9
           9          10          10          10          10          10
          11          11          11          11          11          12
          12          12          12          12          12          12
          12          12          12          12          12          12
Primitive exponents                        R   N=         126
  4.56324000E+03  6.82024000E+02  1.54973000E+02  4.44553000E+01  1.30290000E+01
  1.82773000E+00  2.09642000E+01  4.80331000E+00  1.45933000E+00  4.83456000E-01
  1.45585000E-01  4.38000000E-02  6.26000000E-01  4.56324000E+03  6.82024000E+02
  1.54973000E+02  4.44553000E+01  1.30290000E+01  1.82773000E+00  2.09642000E+01
  4.80331000E+00  1.45933000E+00  4.83456000E-01  1.45585000E-01  4.38000000E-02
  6.26000000E-01  4.56324000E+03  6.82024000E+02  1.54973000E+02  4.44553000E+01
  1.30290000E+01  1.82773000E+00  2.09642000E+01  4.80331000E+00  1.45933000E+00
  4.83456000E-01  1.45585000E-01  4.38000000E-02  6.26000000E-01  4.56324000E+03
  6.82024000E+02  1.54973000E+02  4.44553000E+01  1.30290000E+01  1.82773000E+00
  2.09642000E+01  4.80331000E+00  1.45933000E+00  4.83456000E-01  1.45585000E-01
  4.38000000E-02  6.26000000E-01  3.38650000E+01  5.09479000E+00  1.15879000E+00
  3.25840000E-01  1.02741000E-01  3.60000000E-02  7.50000000E-01  3.38650000E+01
  5.09479000E+00  1.15879000E+00  3.25840000E-01  1.02741000E-01  3.60000000E-02
  7.50000000E-01  3.38650000E+01  5.09479000E+00  1.15879000E+00  3.25840000E-01
  1.02741000E-01  3.60000000E-02  7.50000000E-01  3.38650000E+01  5.09479000E+00
  1.15879000E+00  3.25840000E-01  1.02741000E-01  3.60000000E-02  7.50000000E-01
  3.38650000E+01  5.09479000E+00  1.15879000E+00  3.25840000E-01  1.02741000E-01
  3.60000000E-02  7.50000000E-01  3.38650000E+01  5.09479000E+00  1.15879000E+00
  3.25840000E-01  1.02741000E-01  3.60000000E-02  7.50000000E-01  3.38650000E+01
  5.09479000E+00  1.15879000E+00  3.25840000E-01  1.02741000E-01  3.60000000E-02
  7.50000000E-01  1.05819000E+05  1.58720000E+04  3.61965000E+03  1.03080000E+03
  3.39908000E+02  1.24538000E+02  1.24538000E+02  4.95135000E+01  2.08056000E+01
  6.58346000E+00  2.56468000E+00  5.59763000E-01  1.83273000E-01  4.83000000E-02
  5.89776000E+02  1.39849000E+02  4.51413000E+01  1.68733000E+01  2.77152000E+00
  6.74110000E+00  2.77152000E+00  1.02387000E+00  3.81368000E-01  1.09437000E-01
  7.50000000E-01
Contraction coefficients                   R   N=         126
  1.96665025E-03  1.52306019E-02  7.61269097E-02  2.60801033E-01  6.16462078E-01
  2.21006028E-01  1.14660081E-01  9.19999648E-01 -3.03068213E-03  1.00000000E+00
  1.00000000E+00  1.00000000E+00  1.00000000E+00  1.96665025E-03  1.52306019E-02
  7.61269097E-02  2.60801033E-01  6.16462078E-01  2.21006028E-01  1.14660081E-01
  9.19999648E-01 -3.03068213E-03  1.00000000E+00  1.00000000E+00  1.00000000E+00
  1.00000000E+00  1.96665025E-03  1.52306019E-02  7.61269097E-02  2.60801033E-01
  6.16462078E-01  2.21006028E-01  1.14660081E-01  9.19999648E-01 -3.03068213E-03
  1.00000000E+00  1.00000000E+00  1.00000000E+00  1.00000000E+00  1.96665025E-03
  1.52306019E-02  7.61269097E-02  2.60801033E-01  6.16462078E-01  2.21006028E-01
  1.14660081E-01  9.19999648E-01 -3.03068213E-03  1.00000000E+00  1.00000000E+00
  1.00000000E+00  1.00000000E+00  2.54938145E-02  1.90373109E-01  8.52161486E-01
  1.00000000E+00  1.00000000E+00  1.00000000E+00  1.00000000E+00  2.54938145E-02
  1.90373109E-01  8.52161486E-01  1.00000000E+00  1.00000000E+00  1.00000000E+00
  1.00000000E+00  2.54938145E-02  1.90373109E-01  8.52161486E-01  1.00000000E+00
  1.00000000E+00  1.00000000E+00  1.00000000E+00  2.54938145E-02  1.90373109E-01
  8.52161486E-01  1.00000000E+00  1.00000000E+00  1.00000000E+00  1.00000000E+00
  2.54938145E-02  1.90373109E-01  8.52161486E-01  1.00000000E+00  1.00000000E+00
  1.00000000E+00  1.00000000E+00  2.54938145E-02  1.90373109E-01  8.52161486E-01
  1.00000000E+00  1.00000000E+00  1.00000000E+00  1.00000000E+00  2.54938145E-02
  1.90373109E-01  8.52161486E-01  1.00000000E+00  1.00000000E+00  1.00000000E+00
  1.00000000E+00  7.38000247E-04  5.71800191E-03  2.94950099E-02  1.17286039E-01
  3.62949121E-01  5.84149195E-01  1.34176973E-01  6.24249876E-01  2.91755942E-01
  1.00000000E+00  1.00000000E+00  1.00000000E+00  1.00000000E+00  1.00000000E+00
  3.66556935E-03  2.83679194E-02  1.24756603E-01  3.39654631E-01  7.47585963E-01
 -1.57224381E+00  9.92388882E-01  1.00000000E+00  1.00000000E+00  1.00000000E+00
  1.00000000E+00
P(S=P) Contraction coefficients            R   N=         126
  0.00000000E+00  0.00000000E+00  0.00000000E+00  0.00000000E+00  0.00000000E+00
  0.00000000E+00  4.02486927E-02  2.37593957E-01  8.15853851E-01  1.00000000E+00
  1.00000000E+00  1.00000000E+00  0.00000000E+00  0.00000000E+00  0.00000000E+00
  0.00000000E+00  0.00000000E+00  0.00000000E+00  0.00000000E+00  4.02486927E-02
  2.37593957E-01  8.15853851E-01  1.00000000E+00  1.00000000E+00  1.00000000E+00
  0.00000000E+00  0.00000000E+00  0.00000000E+00  0.00000000E+00  0.00000000E+00
  0.00000000E+00  0.00000000E+00  4.02486927E-02  2.37593957E-01  8.15853851E-01
  1.00000000E+00  1.00000000E+00  1.00000000E+00  0.00000000E+00  0.00000000E+00
  0.00000000E+00  0.00000000E+00  0.00000000E+00  0.00000000E+00  0.00000000E+00
  4.02486927E-02  2.37593957E-01  8.15853851E-01  1.00000000E+00  1.00000000E+00
  1.00000000E+00  0.00000000E+00  0.00000000E+00  0.00000000E+00  0.00000000E+00
  0.00000000E+00  0.00000000E+00  0.00000000E+00  0.00000000E+00  0.00000000E+00
  0.00000000E+00  0.00000000E+00  0.00000000E+00  0.00000000E+00  0.00000000E+00
  0.00000000E+00  0.00000000E+00  0.00000000E+00  0.00000000E+00  0.00000000E+00
  0.00000000E+00  0.00000000E+00  0.00000000E+00  0.00000000E+00  0.00000000E+00
  0.00000000E+00  0.00000000E+00  0.00000000E+00  0.00000000E+00  0.00000000E+00
  0.00000000E+00  0.00000000E+00  0.00000000E+00  0.00000000E+00  0.00000000E+00
  0.00000000E+00  0.00000000E+00  0.00000000E+00  0.00000000E+00  0.00000000E+00
  0.00000000E+00  0.00000000E+00  0.00000000E+00  0.00000000E+00  0.00000000E+00
  0.00000000E+00  0.00000000E+00  0.00000000E+00  0.00000000E+00  0.00000000E+00
  0.00000000E+00  0.00000000E+00  0.00000000E+00  0.00000000E+00  0.00000000E+00
  0.00000000E+00  0.00000000E+00  0.00000000E+00  0.00000000E+00  0.00000000E+00
  0.00000000E+00  0.00000000E+00  0.00000000E+00  0.00000000E+00  1.00000000E+00
  0.00000000E+00  0.00000000E+00  0.00000000E+00  0.00000000E+00  0.00000000E+00
  0.00000000E+00  0.00000000E+00  0.00000000E+00  0.00000000E+00  0.00000000E+00
  0.00000000E+00
Coordinates of each shell                  R   N=         216
  8.84924660E-01  3.33847165E+00  5.08310821E-02  8.84924660E-01  3.33847165E+00
  5.08310821E-02  8.84924660E-01  3.33847165E+00  5.08310821E-02  8.84924660E-01
  3.33847165E+00  5.08310821E-02  8.84924660E-01  3.33847165E+00  5.08310821E-02
  8.84924660E-01  3.33847165E+00  5.08310821E-02  8.40450590E-03  6.41299423E-01
 -6.06672584E-01  8.40450590E-03  6.41299423E-01 -6.06672584E-01  8.40450590E-03
  6.41299423E-01 -6.06672584E-01  8.40450590E-03  6.41299423E-01 -6.06672584E-01
  8.40450590E-03  6.41299423E-01 -6.06672584E-01  8.40450590E-03  6.41299423E-01
 -6.06672584E-01 -2.27486079E+00 -1.77852315E-01  8.06370864E-01 -2.27486079E+00
 -1.77852315E-01  8.06370864E-01 -2.27486079E+00 -1.77852315E-01  8.06370864E-01
 -2.27486079E+00 -1.77852315E-01  8.06370864E-01 -2.27486079E+00 -1.77852315E-01
  8.06370864E-01 -2.27486079E+00 -1.77852315E-01  8.06370864E-01 -4.39605572E+00
 -9.28329485E-01 -3.08354170E-01 -4.39605572E+00 -9.28329485E-01 -3.08354170E-01
 -4.39605572E+00 -9.28329485E-01 -3.08354170E-01 -4.39605572E+00 -9.28329485E-01
 -3.08354170E-01 -4.39605572E+00 -9.28329485E-01 -3.08354170E-01 -4.39605572E+00
 -9.28329485E-01 -3.08354170E-01 -4.66936565E+00 -1.07512513E+00 -2.33753175E+00
 -4.66936565E+00 -1.07512513E+00 -2.33753175E+00 -4.66936565E+00 -1.07512513E+00
 -2.33753175E+00 -4.66936565E+00 -1.07512513E+00 -2.33753175E+00 -4.66936565E+00
 -1.07512513E+00 -2.33753175E+00  2.63185557E+00  3.83913425E+00 -9.25939936E-01
  2.63185557E+00  3.83913425E+00 -9.25939936E-01  2.63185557E+00  3.83913425E+00
 -9.25939936E-01  2.63185557E+00  3.83913425E+00 -9.25939936E-01  2.63185557E+00
  3.83913425E+00 -9.25939936E-01 -5.96521423E+00 -1.49717292E+00  8.84970854E-01
 -5.96521423E+00 -1.49717292E+00  8.84970854E-01 -5.96521423E+00 -1.49717292E+00
  8.84970854E-01 -5.96521423E+00 -1.49717292E+00  8.84970854E-01 -5.96521423E+00
 -1.49717292E+00  8.84970854E-01 -2.20074411E+00 -1.09828750E-01  2.85967742E+00
 -2.20074411E+00 -1.09828750E-01  2.85967742E+00 -2.20074411E+00 -1.09828750E-01
  2.85967742E+00 -2.20074411E+00 -1.09828750E-01  2.85967742E+00 -2.20074411E+00
 -1.09828750E-01  2.85967742E+00 -3.33550983E-01  3.71109336E-01 -2.62023843E+00
 -3.33550983E-01  3.71109336E-01 -2.62023843E+00 -3.33550983E-01  3.71109336E-01
 -2.62023843E+00 -3.33550983E-01  3.71109336E-01 -2.62023843E+00 -3.33550983E-01
  3.71109336E-01 -2.62023843E+00  1.26796153E+00  3.38463027E+00  2.08342936E+00
  1.26796153E+00  3.38463027E+00  2.08342936E+00  1.26796153E+00  3.38463027E+00
  2.08342936E+00  1.26796153E+00  3.38463027E+00  2.08342936E+00  1.26796153E+00
  3.38463027E+00  2.08342936E+00 -5.69317873E-01  4.74996512E+00 -3.63563593E-01
 -5.69317873E-01  4.74996512E+00 -3.63563593E-01 -5.69317873E-01  4.74996512E+00
 -3.63563593E-01 -5.69317873E-01  4.74996512E+00 -3.63563593E-01 -5.69317873E-01
  4.74996512E+00 -3.63563593E-01  2.61787646E+00 -1.58260281E+00  4.50673486E-02
  2.61787646E+00 -1.58260281E+00  4.50673486E-02  2.61787646E+00 -1.58260281E+00
  4.50673486E-02  2.61787646E+00 -1.58260281E+00  4.50673486E-02  2.61787646E+00
 -1.58260281E+00  4.50673486E-02  2.61787646E+00 -1.58260281E+00  4.50673486E-02
  2.61787646E+00 -1.58260281E+00  4.50673486E-02  2.61787646E+00 -1.58260281E+00
  4.50673486E-02  2.61787646E+00 -1.58260281E+00  4.50673486E-02  2.61787646E+00
 -1.58260281E+00  4.50673486E-02  2.61787646E+00 -1.58260281E+00  4.50673486E-02
  2.61787646E+00 -1.58260281E+00  4.50673486E-02  2.61787646E+00 -1.58260281E+00
  4.50673486E-02
Constraint Structure                       R   N=          36
  8.84924660E-01  3.33847165E+00  5.08310821E-02  8.40450590E-03  6.41299423E-01
 -6.06672584E-01 -2.27486079E+00 -1.77852315E-01  8.06370864E-01 -4.39605572E+00
 -9.28329485E-01 -3.08354170E-01 -4.66936565E+00 -1.07512513E+00 -2.33753175E+00
  2.63185557E+00  3.83913425E+00 -9.25939936E-01 -5.96521423E+00 -1.49717292E+00
  8.84970854E-01 -2.20074411E+00 -1.09828750E-01  2.85967742E+00 -3.33550983E-01
  3.71109336E-01 -2.62023843E+00  1.26796153E+00  3.38463027E+00  2.08342936E+00
 -5.69317873E-01  4.74996512E+00 -3.63563593E-01  2.61787646E+00 -1.58260281E+00
  4.50673486E-02
Num ILSW                                   I              100
ILSW                                       I   N=         100
           0           0           0           0           2           0
           0           0           0           0         402          -1
           5           0           0           0           0           0
           0           0           0           0           0           0
           1           0           0           0           0           0
           0           0      100000           0          -1           0
           0           0           0           0           0           0
           0           0           0           1           0           0
           0           0           1           0           0           0
           0           0           4          41           0           0
           0           0           5           0           0           0
           0           0           0           0           0           0
           0           0           0           0           0           0
           0           0           0           0           0           0
           0           0           0           0           0           0
           0           0           0           0           0           0
           0           0           0           0
Num RLSW                                   I               41
RLSW                                       R   N=          41
  8.00000000E-01  7.20000000E-01  1.00000000E+00  8.10000000E-01  2.00000000E-01
  0.00000000E+00  0.00000000E+00  1.00000000E+00  0.00000000E+00  0.00000000E+00
  0.00000000E+00  0.00000000E+00  1.00000000E+00  0.00000000E+00  0.00000000E+00
  0.00000000E+00  0.00000000E+00  1.00000000E+00  0.00000000E+00  0.00000000E+00
  0.00000000E+00  0.00000000E+00  1.00000000E+00  0.00000000E+00  0.00000000E+00
  0.00000000E+00  0.00000000E+00  1.00000000E+00  0.00000000E+00  0.00000000E+00
  0.00000000E+00  0.00000000E+00  0.00000000E+00  0.00000000E+00  0.00000000E+00
  0.00000000E+00  0.00000000E+00  0.00000000E+00  1.00000000E+00  1.00000000E+00
  0.00000000E+00
MxBond                                     I                4
NBond                                      I   N=          12
           4           4           3           3           1           1
           1           1           1           1           1           1
IBond                                      I   N=          48
           2           6          10          11           1           3
           9          12           2           4           8           0
           3           5           7           0           4           0
           0           0           1           0           0           0
           4           0           0           0           3           0
           0           0           2           0           0           0
           1           0           0           0           1           0
           0           0           2           0           0           0
RBond                                      R   N=          48
  1.00000000E+00  1.00000000E+00  1.00000000E+00  1.00000000E+00  1.00000000E+00
  1.00000000E+00  1.00000000E+00  1.00000000E+00  1.00000000E+00  2.00000000E+00
  1.00000000E+00  0.00000000E+00  2.00000000E+00  1.00000000E+00  1.00000000E+00
  0.00000000E+00  1.00000000E+00  0.00000000E+00  0.00000000E+00  0.00000000E+00
  1.00000000E+00  0.00000000E+00  0.00000000E+00  0.00000000E+00  1.00000000E+00
  0.00000000E+00  0.00000000E+00  0.00000000E+00  1.00000000E+00  0.00000000E+00
  0.00000000E+00  0.00000000E+00  1.00000000E+00  0.00000000E+00  0.00000000E+00
  0.00000000E+00  1.00000000E+00  0.00000000E+00  0.00000000E+00  0.00000000E+00
  1.00000000E+00  0.00000000E+00  0.00000000E+00  0.00000000E+00  1.00000000E+00
  0.00000000E+00  0.00000000E+00  0.00000000E+00
Virial Ratio                               R      2.003067828406942E+00
SCF Energy                                 R     -6.168942912809574E+02
Total Energy                               R     -6.168942912809574E+02
RMS Density                                R      9.197575500494039E-12
Nuclear derivative order                   I                0
External E-field                           R   N=          35
  0.00000000E+00  0.00000000E+00  0.00000000E+00  0.00000000E+00  0.00000000E+00
  0.00000000E+00  0.00000000E+00  0.00000000E+00  0.00000000E+00  0.00000000E+00
  0.00000000E+00  0.00000000E+00  0.00000000E+00  0.00000000E+00  0.00000000E+00
  0.00000000E+00  0.00000000E+00  0.00000000E+00  0.00000000E+00  0.00000000E+00
  0.00000000E+00  0.00000000E+00  0.00000000E+00  0.00000000E+00  0.00000000E+00
  0.00000000E+00  0.00000000E+00  0.00000000E+00  0.00000000E+00  0.00000000E+00
  0.00000000E+00  0.00000000E+00  0.00000000E+00  0.00000000E+00  0.00000000E+00
IOpCl                                      I                0
IROHF                                      I                0
Alpha Orbital Energies                     R   N=         167
 -1.01534918E+02 -1.02472187E+01 -1.01929238E+01 -1.01836004E+01 -1.01825246E+01
 -9.44939859E+00 -7.21375879E+00 -7.20428163E+00 -7.20415080E+00 -8.68120867E-01
 -7.88376107E-01 -7.39441067E-01 -6.41462860E-01 -5.76642994E-01 -4.84896012E-01
 -4.76125068E-01 -4.41545235E-01 -4.17558438E-01 -4.02753971E-01 -3.74621950E-01
 -3.68101456E-01 -3.05590030E-01 -2.98954204E-01 -2.81155239E-01 -3.24817957E-02
 -7.26901805E-03  6.18374976E-03  7.36656340E-03  2.22472908E-02  2.82991222E-02
  3.90158116E-02  4.10606385E-02  6.47978288E-02  6.49066489E-02  7.20566747E-02
  8.33954262E-02  8.81738985E-02  9.89165773E-02  1.10788987E-01  1.15185440E-01
  1.18245865E-01  1.21855658E-01  1.29130875E-01  1.30360872E-01  1.35872192E-01
  1.41677628E-01  1.51240364E-01  1.56930868E-01  1.59984373E-01  1.64987931E-01
  1.72854754E-01  1.88668223E-01  1.90303104E-01  2.15332377E-01  2.18597681E-01
  2.23923889E-01  2.48185835E-01  2.60760722E-01  2.69482980E-01  2.92225922E-01
  3.39501740E-01  3.56969671E-01  3.93372168E-01  4.25767455E-01  4.30857795E-01
  4.44271481E-01  4.57306361E-01  4.81358728E-01  4.86665163E-01  4.95134501E-01
  5.25598688E-01  5.29047438E-01  5.69648794E-01  5.88264869E-01  5.96007861E-01
  6.19578215E-01  6.33833565E-01  6.46906790E-01  6.61224812E-01  6.65828350E-01
  6.94271771E-01  7.08002895E-01  7.30008121E-01  7.40465140E-01  7.87733654E-01
  8.18330883E-01  8.32363262E-01  8.63749810E-01  8.89223399E-01  9.02041835E-01
  9.36746407E-01  9.61104650E-01  1.00374743E+00  1.03304149E+00  1.06676882E+00
  1.08445654E+00  1.11919438E+00  1.18687129E+00  1.19841326E+00  1.29877103E+00
  1.37399715E+00  1.43480267E+00  1.45344841E+00  1.46772875E+00  1.50946412E+00
  1.54045903E+00  1.55742777E+00  1.58214570E+00  1.58912474E+00  1.63036465E+00
  1.67806576E+00  1.69175278E+00  1.70238569E+00  1.73000581E+00  1.76788634E+00
  1.79421140E+00  1.87101918E+00  1.88494783E+00  1.93421085E+00  1.98623342E+00
  2.01627208E+00  2.06543378E+00  2.11935486E+00  2.18155373E+00  2.19413925E+00
  2.20396744E+00  2.24911461E+00  2.30183476E+00  2.30774766E+00  2.35255839E+00
  2.37666862E+00  2.45066671E+00  2.46503936E+00  2.48979247E+00  2.53285428E+00
  2.56335313E+00  2.57077750E+00  2.58724127E+00  2.60107576E+00  2.64259171E+00
  2.72310389E+00  2.73229974E+00  2.74242467E+00  2.77728448E+00  2.85066156E+00
  2.87069478E+00  2.93027740E+00  3.07129402E+00  3.08467702E+00  3.18834412E+00
  3.40850146E+00  3.50322937E+00  3.71451542E+00  3.78790935E+00  3.79283721E+00
  3.94639454E+00  4.11229443E+00  4.27886982E+00  9.75520883E+00  2.37140599E+01
  2.37970393E+01  2.39398146E+01  2.42621817E+01  2.59281847E+01  2.59799040E+01
  2.64499032E+01  2.15744989E+02
Alpha MO coefficients                      R   N=       27889
  2.04984557E-07 -4.41120065E-07 -2.34711671E-06 -2.16947474E-06 -1.03715006E-06
 -1.24001779E-06  1.83282194E-05  1.48722053E-05  8.70879195E-06  3.52782184E-05
  3.30124161E-05  2.10487556E-05  2.95321573E-05 -1.64033851E-03 -1.59131817E-04
  5.11389478E-04  4.51964271E-05  7.52532504E-06 -1.62748070E-06 -5.36961257E-06
  1.34855731E-05  2.95566463E-07  1.34998186E-06 -2.68992155E-06  1.32265375E-05
 -1.19617766E-05  5.31669623E-06 -1.69374005E-05 -1.73641869E-05  1.80358144E-05
 -1.83347782E-05  1.80565528E-04  1.18529095E-04 -1.37318320E-04  1.79538711E-06
  3.70236703E-03 -4.68389810E-04  4.67777024E-04  8.02029493E-04  8.87514278E-06
 -2.48928403E-06  3.24067274E-06 -1.48032341E-06  9.42345779E-06 -6.72271079E-07
  1.95066525E-06  4.42879929E-06 -2.58517255E-06 -4.69718168E-06 -7.00468665E-06
 -2.55431606E-05  1.00509042E-05  2.71334332E-05 -8.18885248E-06  6.59506660E-07
 -1.36955842E-05 -5.83013021E-05 -1.20321506E-03 -1.17014245E-03 -3.73263451E-04
 -1.04519706E-04  5.93828527E-06  6.26443067E-06 -6.08458651E-06 -2.29278066E-07
 -4.76884005E-06  2.77786108E-07 -8.30419499E-07 -1.72846659E-06  7.33276135E-07
  8.67756213E-07  8.85119359E-06  8.93290688E-06 -2.52346494E-06  3.78444054E-07
 -5.73196850E-05 -7.51113924E-05 -1.54711457E-05  5.85685056E-05 -1.57705173E-03
 -3.21491728E-04 -1.73477047E-04 -9.41067273E-05 -4.57201992E-06 -1.57118126E-06
 -3.80453089E-06 -1.73669923E-06 -1.46514742E-06 -2.66501991E-06  3.03287074E-05
  6.66831386E-05  6.28484670E-05  7.00223397E-06 -6.61277180E-08  5.83839786E-06
  1.21916525E-05 -8.32830374E-05  8.46210223E-05  2.32102074E-04  7.88856659E-06
  1.28571192E-05 -1.11774134E-05  1.41093350E-06 -1.52942361E-05 -5.22084195E-05
 -1.43862580E-04 -6.19328953E-08 -2.76710685E-07  9.59473132E-07  5.15023068E-06
 -2.95576065E-05  6.46386408E-05  1.52869426E-04 -1.00737444E-05  2.21495891E-06
  1.26864979E-05 -1.90016288E-06 -5.77880319E-05 -1.17203780E-04  1.06378871E-04
 -4.77309825E-06  1.36781965E-06 -1.47070649E-05  1.07173268E-05 -7.06849395E-05
 -2.66881409E-05  6.68793819E-05 -4.14750136E-06  1.22088193E-05  1.63654207E-05
 -7.38148497E-06  3.39013522E-05 -1.34019084E-04 -3.04071867E-04  1.22047715E-07
 -3.43717566E-06 -1.39646448E-06  4.11609628E-01  6.54076159E-01  1.50040340E-02