(R)-3-chloro-1-butene tau=120                                           
SP        RB3LYP                                                      6-311++G(d,p)       
Number of atoms                            I               12
Info1-9                                    I   N=           9
          26          26           0           0           0         110
           1          18        -502
Full Title                                 C   N=           3
(R)-3-chloro-1-butene tau=120       
Route                                      C   N=           7
#P B3LYP/6-311++G** scf(conver=11) int=ultrafine polar=optro
t cphf(rdfreq,conver=11)
Charge                                     I                0
Multiplicity                               I                1
Number of electrons                        I               48
Number of alpha electrons                  I               24
Number of beta electrons                   I               24
Number of basis functions                  I              167
Number of independent functions            I              167
Number of point charges in /Mol/           I                0
Number of translation vectors              I                0
Atomic numbers                             I   N=          12
           6           6           6           6           1           1
           1           1           1           1           1          17
Nuclear charges                            R   N=          12
  6.00000000E+00  6.00000000E+00  6.00000000E+00  6.00000000E+00  1.00000000E+00
  1.00000000E+00  1.00000000E+00  1.00000000E+00  1.00000000E+00  1.00000000E+00
  1.00000000E+00  1.70000000E+01
Current cartesian coordinates              R   N=          36
  9.70455530E-01  3.35321380E+00  1.43454881E-01  4.44737696E-02  7.31747283E-01
 -6.09839606E-01 -2.19734350E+00 -2.34954164E-01  8.03741970E-01 -4.37735878E+00
 -8.34368868E-01 -2.92059543E-01 -4.66721569E+00 -6.03017391E-01 -2.32973967E+00
  2.63714041E+00  3.88446785E+00 -9.53466358E-01 -5.94868833E+00 -1.58127221E+00
  8.08861419E-01 -1.92794615E+00 -5.03369186E-01  2.84372774E+00 -2.83604428E-01
  6.39232050E-01 -2.64109079E+00  1.44795467E+00  3.43455085E+00  2.15084618E+00
 -5.31694264E-01  4.72623885E+00 -2.31518701E-01  2.50780539E+00 -1.65239171E+00
  4.74082195E-03
Number of symbols in /Mol/                 I                0
Force Field                                I                0
Atom Types                                 C   N=          12
                                                            
                                                            
                        
Int Atom Types                             I   N=          12
           0           0           0           0           0           0
           0           0           0           0           0           0
MM charges                                 R   N=          12
  0.00000000E+00  0.00000000E+00  0.00000000E+00  0.00000000E+00  0.00000000E+00
  0.00000000E+00  0.00000000E+00  0.00000000E+00  0.00000000E+00  0.00000000E+00
  0.00000000E+00  0.00000000E+00
Integer atomic weights                     I   N=          12
          12          12          12          12           1           1
           1           1           1           1           1          35
Real atomic weights                        R   N=          12
  1.20000000E+01  1.20000000E+01  1.20000000E+01  1.20000000E+01  1.00782504E+00
  1.00782504E+00  1.00782504E+00  1.00782504E+00  1.00782504E+00  1.00782504E+00
  1.00782504E+00  3.49688527E+01
Atom fragment info                         I   N=          12
           0           0           0           0           0           0
           0           0           0           0           0           0
Atom residue num                           I   N=          12
           0           0           0           0           0           0
           0           0           0           0           0           0
Nuclear spins                              I   N=          12
           0           0           0           0           1           1
           1           1           1           1           1           3
Nuclear ZEff                               R   N=          12
 -3.60000000E+00 -3.60000000E+00 -3.60000000E+00 -3.60000000E+00 -1.00000000E+00
 -1.00000000E+00 -1.00000000E+00 -1.00000000E+00 -1.00000000E+00 -1.00000000E+00
 -1.00000000E+00 -1.42400000E+01
Nuclear ZNuc                               R   N=          12
  6.00000000E+00  6.00000000E+00  6.00000000E+00  6.00000000E+00  1.00000000E+00
  1.00000000E+00  1.00000000E+00  1.00000000E+00  1.00000000E+00  1.00000000E+00
  1.00000000E+00  1.70000000E+01
Nuclear QMom                               R   N=          12
  0.00000000E+00  0.00000000E+00  0.00000000E+00  0.00000000E+00  0.00000000E+00
  0.00000000E+00  0.00000000E+00  0.00000000E+00  0.00000000E+00  0.00000000E+00
  0.00000000E+00 -8.16500000E+00
Nuclear GFac                               R   N=          12
  0.00000000E+00  0.00000000E+00  0.00000000E+00  0.00000000E+00  2.79284600E+00
  2.79284600E+00  2.79284600E+00  2.79284600E+00  2.79284600E+00  2.79284600E+00
  2.79284600E+00  8.21874000E-01
MicOpt                                     I   N=          12
          -1          -1          -1          -1          -1          -1
          -1          -1          -1          -1          -1          -1
Number of residues                         I                0
Number of secondary structures             I                0
SymInf integers                            I   N=          26
           1           1           1           1           1           0
           0           0           0           0           0           0
           0           0           0           0           0           0
           0           0           0           0           0           0
           0           0
RotTr to input orientation                 R   N=          12
  9.99708038E-01  2.36231492E-02  5.07800830E-03 -2.34605877E-02  9.99274884E-01
 -2.99884337E-02 -5.78274740E-03  2.98605452E-02  9.99537347E-01  3.95719833E-03
 -1.94299673E-04 -1.54691406E-03
Number of contracted shells                I               72
Number of primitive shells                 I              126
Pure/Cartesian d shells                    I                0
Pure/Cartesian f shells                    I                0
Highest angular momentum                   I                2
Largest degree of contraction              I                6
Shell types                                I   N=          72
           0          -1          -1          -1          -1          -2
           0          -1          -1          -1          -1          -2
           0          -1          -1          -1          -1          -2
           0          -1          -1          -1          -1          -2
           0           0           0           0           1           0
           0           0           0           1           0           0
           0           0           1           0           0           0
           0           1           0           0           0           0
           1           0           0           0           0           1
           0           0           0           0           1           0
           0           0           0           0           0          -1
           1           1           1           1           1          -2
Number of primitives per shell             I   N=          72
           6           3           1           1           1           1
           6           3           1           1           1           1
           6           3           1           1           1           1
           6           3           1           1           1           1
           3           1           1           1           1           3
           1           1           1           1           3           1
           1           1           1           3           1           1
           1           1           3           1           1           1
           1           3           1           1           1           1
           3           1           1           1           1           6
           3           1           1           1           1           1
           5           2           1           1           1           1
Shell to atom map                          I   N=          72
           1           1           1           1           1           1
           2           2           2           2           2           2
           3           3           3           3           3           3
           4           4           4           4           4           4
           5           5           5           5           5           6
           6           6           6           6           7           7
           7           7           7           8           8           8
           8           8           9           9           9           9
           9          10          10          10          10          10
          11          11          11          11          11          12
          12          12          12          12          12          12
          12          12          12          12          12          12
Primitive exponents                        R   N=         126
  4.56324000E+03  6.82024000E+02  1.54973000E+02  4.44553000E+01  1.30290000E+01
  1.82773000E+00  2.09642000E+01  4.80331000E+00  1.45933000E+00  4.83456000E-01
  1.45585000E-01  4.38000000E-02  6.26000000E-01  4.56324000E+03  6.82024000E+02
  1.54973000E+02  4.44553000E+01  1.30290000E+01  1.82773000E+00  2.09642000E+01
  4.80331000E+00  1.45933000E+00  4.83456000E-01  1.45585000E-01  4.38000000E-02
  6.26000000E-01  4.56324000E+03  6.82024000E+02  1.54973000E+02  4.44553000E+01
  1.30290000E+01  1.82773000E+00  2.09642000E+01  4.80331000E+00  1.45933000E+00
  4.83456000E-01  1.45585000E-01  4.38000000E-02  6.26000000E-01  4.56324000E+03
  6.82024000E+02  1.54973000E+02  4.44553000E+01  1.30290000E+01  1.82773000E+00
  2.09642000E+01  4.80331000E+00  1.45933000E+00  4.83456000E-01  1.45585000E-01
  4.38000000E-02  6.26000000E-01  3.38650000E+01  5.09479000E+00  1.15879000E+00
  3.25840000E-01  1.02741000E-01  3.60000000E-02  7.50000000E-01  3.38650000E+01
  5.09479000E+00  1.15879000E+00  3.25840000E-01  1.02741000E-01  3.60000000E-02
  7.50000000E-01  3.38650000E+01  5.09479000E+00  1.15879000E+00  3.25840000E-01
  1.02741000E-01  3.60000000E-02  7.50000000E-01  3.38650000E+01  5.09479000E+00
  1.15879000E+00  3.25840000E-01  1.02741000E-01  3.60000000E-02  7.50000000E-01
  3.38650000E+01  5.09479000E+00  1.15879000E+00  3.25840000E-01  1.02741000E-01
  3.60000000E-02  7.50000000E-01  3.38650000E+01  5.09479000E+00  1.15879000E+00
  3.25840000E-01  1.02741000E-01  3.60000000E-02  7.50000000E-01  3.38650000E+01
  5.09479000E+00  1.15879000E+00  3.25840000E-01  1.02741000E-01  3.60000000E-02
  7.50000000E-01  1.05819000E+05  1.58720000E+04  3.61965000E+03  1.03080000E+03
  3.39908000E+02  1.24538000E+02  1.24538000E+02  4.95135000E+01  2.08056000E+01
  6.58346000E+00  2.56468000E+00  5.59763000E-01  1.83273000E-01  4.83000000E-02
  5.89776000E+02  1.39849000E+02  4.51413000E+01  1.68733000E+01  2.77152000E+00
  6.74110000E+00  2.77152000E+00  1.02387000E+00  3.81368000E-01  1.09437000E-01
  7.50000000E-01
Contraction coefficients                   R   N=         126
  1.96665025E-03  1.52306019E-02  7.61269097E-02  2.60801033E-01  6.16462078E-01
  2.21006028E-01  1.14660081E-01  9.19999648E-01 -3.03068213E-03  1.00000000E+00
  1.00000000E+00  1.00000000E+00  1.00000000E+00  1.96665025E-03  1.52306019E-02
  7.61269097E-02  2.60801033E-01  6.16462078E-01  2.21006028E-01  1.14660081E-01
  9.19999648E-01 -3.03068213E-03  1.00000000E+00  1.00000000E+00  1.00000000E+00
  1.00000000E+00  1.96665025E-03  1.52306019E-02  7.61269097E-02  2.60801033E-01
  6.16462078E-01  2.21006028E-01  1.14660081E-01  9.19999648E-01 -3.03068213E-03
  1.00000000E+00  1.00000000E+00  1.00000000E+00  1.00000000E+00  1.96665025E-03
  1.52306019E-02  7.61269097E-02  2.60801033E-01  6.16462078E-01  2.21006028E-01
  1.14660081E-01  9.19999648E-01 -3.03068213E-03  1.00000000E+00  1.00000000E+00
  1.00000000E+00  1.00000000E+00  2.54938145E-02  1.90373109E-01  8.52161486E-01
  1.00000000E+00  1.00000000E+00  1.00000000E+00  1.00000000E+00  2.54938145E-02
  1.90373109E-01  8.52161486E-01  1.00000000E+00  1.00000000E+00  1.00000000E+00
  1.00000000E+00  2.54938145E-02  1.90373109E-01  8.52161486E-01  1.00000000E+00
  1.00000000E+00  1.00000000E+00  1.00000000E+00  2.54938145E-02  1.90373109E-01
  8.52161486E-01  1.00000000E+00  1.00000000E+00  1.00000000E+00  1.00000000E+00
  2.54938145E-02  1.90373109E-01  8.52161486E-01  1.00000000E+00  1.00000000E+00
  1.00000000E+00  1.00000000E+00  2.54938145E-02  1.90373109E-01  8.52161486E-01
  1.00000000E+00  1.00000000E+00  1.00000000E+00  1.00000000E+00  2.54938145E-02
  1.90373109E-01  8.52161486E-01  1.00000000E+00  1.00000000E+00  1.00000000E+00
  1.00000000E+00  7.38000247E-04  5.71800191E-03  2.94950099E-02  1.17286039E-01
  3.62949121E-01  5.84149195E-01  1.34176973E-01  6.24249876E-01  2.91755942E-01
  1.00000000E+00  1.00000000E+00  1.00000000E+00  1.00000000E+00  1.00000000E+00
  3.66556935E-03  2.83679194E-02  1.24756603E-01  3.39654631E-01  7.47585963E-01
 -1.57224381E+00  9.92388882E-01  1.00000000E+00  1.00000000E+00  1.00000000E+00
  1.00000000E+00
P(S=P) Contraction coefficients            R   N=         126
  0.00000000E+00  0.00000000E+00  0.00000000E+00  0.00000000E+00  0.00000000E+00
  0.00000000E+00  4.02486927E-02  2.37593957E-01  8.15853851E-01  1.00000000E+00
  1.00000000E+00  1.00000000E+00  0.00000000E+00  0.00000000E+00  0.00000000E+00
  0.00000000E+00  0.00000000E+00  0.00000000E+00  0.00000000E+00  4.02486927E-02
  2.37593957E-01  8.15853851E-01  1.00000000E+00  1.00000000E+00  1.00000000E+00
  0.00000000E+00  0.00000000E+00  0.00000000E+00  0.00000000E+00  0.00000000E+00
  0.00000000E+00  0.00000000E+00  4.02486927E-02  2.37593957E-01  8.15853851E-01
  1.00000000E+00  1.00000000E+00  1.00000000E+00  0.00000000E+00  0.00000000E+00
  0.00000000E+00  0.00000000E+00  0.00000000E+00  0.00000000E+00  0.00000000E+00
  4.02486927E-02  2.37593957E-01  8.15853851E-01  1.00000000E+00  1.00000000E+00
  1.00000000E+00  0.00000000E+00  0.00000000E+00  0.00000000E+00  0.00000000E+00
  0.00000000E+00  0.00000000E+00  0.00000000E+00  0.00000000E+00  0.00000000E+00
  0.00000000E+00  0.00000000E+00  0.00000000E+00  0.00000000E+00  0.00000000E+00
  0.00000000E+00  0.00000000E+00  0.00000000E+00  0.00000000E+00  0.00000000E+00
  0.00000000E+00  0.00000000E+00  0.00000000E+00  0.00000000E+00  0.00000000E+00
  0.00000000E+00  0.00000000E+00  0.00000000E+00  0.00000000E+00  0.00000000E+00
  0.00000000E+00  0.00000000E+00  0.00000000E+00  0.00000000E+00  0.00000000E+00
  0.00000000E+00  0.00000000E+00  0.00000000E+00  0.00000000E+00  0.00000000E+00
  0.00000000E+00  0.00000000E+00  0.00000000E+00  0.00000000E+00  0.00000000E+00
  0.00000000E+00  0.00000000E+00  0.00000000E+00  0.00000000E+00  0.00000000E+00
  0.00000000E+00  0.00000000E+00  0.00000000E+00  0.00000000E+00  0.00000000E+00
  0.00000000E+00  0.00000000E+00  0.00000000E+00  0.00000000E+00  0.00000000E+00
  0.00000000E+00  0.00000000E+00  0.00000000E+00  0.00000000E+00  1.00000000E+00
  0.00000000E+00  0.00000000E+00  0.00000000E+00  0.00000000E+00  0.00000000E+00
  0.00000000E+00  0.00000000E+00  0.00000000E+00  0.00000000E+00  0.00000000E+00
  0.00000000E+00
Coordinates of each shell                  R   N=         216
  9.70455530E-01  3.35321380E+00  1.43454881E-01  9.70455530E-01  3.35321380E+00
  1.43454881E-01  9.70455530E-01  3.35321380E+00  1.43454881E-01  9.70455530E-01
  3.35321380E+00  1.43454881E-01  9.70455530E-01  3.35321380E+00  1.43454881E-01
  9.70455530E-01  3.35321380E+00  1.43454881E-01  4.44737696E-02  7.31747283E-01
 -6.09839606E-01  4.44737696E-02  7.31747283E-01 -6.09839606E-01  4.44737696E-02
  7.31747283E-01 -6.09839606E-01  4.44737696E-02  7.31747283E-01 -6.09839606E-01
  4.44737696E-02  7.31747283E-01 -6.09839606E-01  4.44737696E-02  7.31747283E-01
 -6.09839606E-01 -2.19734350E+00 -2.34954164E-01  8.03741970E-01 -2.19734350E+00
 -2.34954164E-01  8.03741970E-01 -2.19734350E+00 -2.34954164E-01  8.03741970E-01
 -2.19734350E+00 -2.34954164E-01  8.03741970E-01 -2.19734350E+00 -2.34954164E-01
  8.03741970E-01 -2.19734350E+00 -2.34954164E-01  8.03741970E-01 -4.37735878E+00
 -8.34368868E-01 -2.92059543E-01 -4.37735878E+00 -8.34368868E-01 -2.92059543E-01
 -4.37735878E+00 -8.34368868E-01 -2.92059543E-01 -4.37735878E+00 -8.34368868E-01
 -2.92059543E-01 -4.37735878E+00 -8.34368868E-01 -2.92059543E-01 -4.37735878E+00
 -8.34368868E-01 -2.92059543E-01 -4.66721569E+00 -6.03017391E-01 -2.32973967E+00
 -4.66721569E+00 -6.03017391E-01 -2.32973967E+00 -4.66721569E+00 -6.03017391E-01
 -2.32973967E+00 -4.66721569E+00 -6.03017391E-01 -2.32973967E+00 -4.66721569E+00
 -6.03017391E-01 -2.32973967E+00  2.63714041E+00  3.88446785E+00 -9.53466358E-01
  2.63714041E+00  3.88446785E+00 -9.53466358E-01  2.63714041E+00  3.88446785E+00
 -9.53466358E-01  2.63714041E+00  3.88446785E+00 -9.53466358E-01  2.63714041E+00
  3.88446785E+00 -9.53466358E-01 -5.94868833E+00 -1.58127221E+00  8.08861419E-01
 -5.94868833E+00 -1.58127221E+00  8.08861419E-01 -5.94868833E+00 -1.58127221E+00
  8.08861419E-01 -5.94868833E+00 -1.58127221E+00  8.08861419E-01 -5.94868833E+00
 -1.58127221E+00  8.08861419E-01 -1.92794615E+00 -5.03369186E-01  2.84372774E+00
 -1.92794615E+00 -5.03369186E-01  2.84372774E+00 -1.92794615E+00 -5.03369186E-01
  2.84372774E+00 -1.92794615E+00 -5.03369186E-01  2.84372774E+00 -1.92794615E+00
 -5.03369186E-01  2.84372774E+00 -2.83604428E-01  6.39232050E-01 -2.64109079E+00
 -2.83604428E-01  6.39232050E-01 -2.64109079E+00 -2.83604428E-01  6.39232050E-01
 -2.64109079E+00 -2.83604428E-01  6.39232050E-01 -2.64109079E+00 -2.83604428E-01
  6.39232050E-01 -2.64109079E+00  1.44795467E+00  3.43455085E+00  2.15084618E+00
  1.44795467E+00  3.43455085E+00  2.15084618E+00  1.44795467E+00  3.43455085E+00
  2.15084618E+00  1.44795467E+00  3.43455085E+00  2.15084618E+00  1.44795467E+00
  3.43455085E+00  2.15084618E+00 -5.31694264E-01  4.72623885E+00 -2.31518701E-01
 -5.31694264E-01  4.72623885E+00 -2.31518701E-01 -5.31694264E-01  4.72623885E+00
 -2.31518701E-01 -5.31694264E-01  4.72623885E+00 -2.31518701E-01 -5.31694264E-01
  4.72623885E+00 -2.31518701E-01  2.50780539E+00 -1.65239171E+00  4.74082195E-03
  2.50780539E+00 -1.65239171E+00  4.74082195E-03  2.50780539E+00 -1.65239171E+00
  4.74082195E-03  2.50780539E+00 -1.65239171E+00  4.74082195E-03  2.50780539E+00
 -1.65239171E+00  4.74082195E-03  2.50780539E+00 -1.65239171E+00  4.74082195E-03
  2.50780539E+00 -1.65239171E+00  4.74082195E-03  2.50780539E+00 -1.65239171E+00
  4.74082195E-03  2.50780539E+00 -1.65239171E+00  4.74082195E-03  2.50780539E+00
 -1.65239171E+00  4.74082195E-03  2.50780539E+00 -1.65239171E+00  4.74082195E-03
  2.50780539E+00 -1.65239171E+00  4.74082195E-03  2.50780539E+00 -1.65239171E+00
  4.74082195E-03
Constraint Structure                       R   N=          36
  9.70455530E-01  3.35321380E+00  1.43454881E-01  4.44737696E-02  7.31747283E-01
 -6.09839606E-01 -2.19734350E+00 -2.34954164E-01  8.03741970E-01 -4.37735878E+00
 -8.34368868E-01 -2.92059543E-01 -4.66721569E+00 -6.03017391E-01 -2.32973967E+00
  2.63714041E+00  3.88446785E+00 -9.53466358E-01 -5.94868833E+00 -1.58127221E+00
  8.08861419E-01 -1.92794615E+00 -5.03369186E-01  2.84372774E+00 -2.83604428E-01
  6.39232050E-01 -2.64109079E+00  1.44795467E+00  3.43455085E+00  2.15084618E+00
 -5.31694264E-01  4.72623885E+00 -2.31518701E-01  2.50780539E+00 -1.65239171E+00
  4.74082195E-03
Num ILSW                                   I              100
ILSW                                       I   N=         100
           0           0           0           0           2           0
           0           0           0           0         402          -1
           5           0           0           0           0           0
           0           0           0           0           0           0
           1           0           0           0           0           0
           0           0      100000           0          -1           0
           0           0           0           0           0           0
           0           0           0           1           0           0
           0           0           1           0           0           0
           0           0           4          41           0           0
           0           0           5           0           0           0
           0           0           0           0           0           0
           0           0           0           0           0           0
           0           0           0           0           0           0
           0           0           0           0           0           0
           0           0           0           0           0           0
           0           0           0           0
Num RLSW                                   I               41
RLSW                                       R   N=          41
  8.00000000E-01  7.20000000E-01  1.00000000E+00  8.10000000E-01  2.00000000E-01
  0.00000000E+00  0.00000000E+00  1.00000000E+00  0.00000000E+00  0.00000000E+00
  0.00000000E+00  0.00000000E+00  1.00000000E+00  0.00000000E+00  0.00000000E+00
  0.00000000E+00  0.00000000E+00  1.00000000E+00  0.00000000E+00  0.00000000E+00
  0.00000000E+00  0.00000000E+00  1.00000000E+00  0.00000000E+00  0.00000000E+00
  0.00000000E+00  0.00000000E+00  1.00000000E+00  0.00000000E+00  0.00000000E+00
  0.00000000E+00  0.00000000E+00  0.00000000E+00  0.00000000E+00  0.00000000E+00
  0.00000000E+00  0.00000000E+00  0.00000000E+00  1.00000000E+00  1.00000000E+00
  0.00000000E+00
MxBond                                     I                4
NBond                                      I   N=          12
           4           4           3           3           1           1
           1           1           1           1           1           1
IBond                                      I   N=          48
           2           6          10          11           1           3
           9          12           2           4           8           0
           3           5           7           0           4           0
           0           0           1           0           0           0
           4           0           0           0           3           0
           0           0           2           0           0           0
           1           0           0           0           1           0
           0           0           2           0           0           0
RBond                                      R   N=          48
  1.00000000E+00  1.00000000E+00  1.00000000E+00  1.00000000E+00  1.00000000E+00
  1.00000000E+00  1.00000000E+00  1.00000000E+00  1.00000000E+00  2.00000000E+00
  1.00000000E+00  0.00000000E+00  2.00000000E+00  1.00000000E+00  1.00000000E+00
  0.00000000E+00  1.00000000E+00  0.00000000E+00  0.00000000E+00  0.00000000E+00
  1.00000000E+00  0.00000000E+00  0.00000000E+00  0.00000000E+00  1.00000000E+00
  0.00000000E+00  0.00000000E+00  0.00000000E+00  1.00000000E+00  0.00000000E+00
  0.00000000E+00  0.00000000E+00  1.00000000E+00  0.00000000E+00  0.00000000E+00
  0.00000000E+00  1.00000000E+00  0.00000000E+00  0.00000000E+00  0.00000000E+00
  1.00000000E+00  0.00000000E+00  0.00000000E+00  0.00000000E+00  1.00000000E+00
  0.00000000E+00  0.00000000E+00  0.00000000E+00
Virial Ratio                               R      2.003081405250978E+00
SCF Energy                                 R     -6.168942797620341E+02
Total Energy                               R     -6.168942797620341E+02
RMS Density                                R      6.996730380248503E-12
Nuclear derivative order                   I                0
External E-field                           R   N=          35
  0.00000000E+00  0.00000000E+00  0.00000000E+00  0.00000000E+00  0.00000000E+00
  0.00000000E+00  0.00000000E+00  0.00000000E+00  0.00000000E+00  0.00000000E+00
  0.00000000E+00  0.00000000E+00  0.00000000E+00  0.00000000E+00  0.00000000E+00
  0.00000000E+00  0.00000000E+00  0.00000000E+00  0.00000000E+00  0.00000000E+00
  0.00000000E+00  0.00000000E+00  0.00000000E+00  0.00000000E+00  0.00000000E+00
  0.00000000E+00  0.00000000E+00  0.00000000E+00  0.00000000E+00  0.00000000E+00
  0.00000000E+00  0.00000000E+00  0.00000000E+00  0.00000000E+00  0.00000000E+00
IOpCl                                      I                0
IROHF                                      I                0
Alpha Orbital Energies                     R   N=         167
 -1.01534776E+02 -1.02475147E+01 -1.01931867E+01 -1.01827770E+01 -1.01823994E+01
 -9.44944109E+00 -7.21374954E+00 -7.20432446E+00 -7.20419312E+00 -8.70749768E-01
 -7.84297164E-01 -7.43040746E-01 -6.39106881E-01 -5.75333028E-01 -4.84303715E-01
 -4.74935992E-01 -4.43628164E-01 -4.20552131E-01 -4.03290394E-01 -3.74595010E-01
 -3.64331363E-01 -3.08725474E-01 -2.99831857E-01 -2.76565627E-01 -2.83277049E-02
 -6.96979905E-03  6.33635926E-03  7.48080658E-03  2.13611147E-02  2.68860971E-02
  3.84007926E-02  4.16934332E-02  6.27103323E-02  6.49359567E-02  7.18806904E-02
  8.34730846E-02  8.75251474E-02  9.98471006E-02  1.10398095E-01  1.15100159E-01
  1.18661138E-01  1.21209623E-01  1.29003478E-01  1.29989305E-01  1.35552632E-01
  1.40621162E-01  1.49225582E-01  1.57975087E-01  1.61044456E-01  1.64990093E-01
  1.71515099E-01  1.86734937E-01  1.90082844E-01  2.16013801E-01  2.17190648E-01
  2.23922611E-01  2.50977992E-01  2.63908669E-01  2.70975534E-01  2.89594775E-01
  3.39803106E-01  3.56884587E-01  3.92462614E-01  4.24507221E-01  4.27226073E-01
  4.49542717E-01  4.56670171E-01  4.83159394E-01  4.87002594E-01  4.95706011E-01
  5.22672332E-01  5.30378925E-01  5.67268805E-01  5.87428299E-01  5.93214625E-01
  6.24631901E-01  6.34022502E-01  6.48391646E-01  6.54281605E-01  6.60864660E-01
  6.90766287E-01  7.06866170E-01  7.34201400E-01  7.35022328E-01  7.87222725E-01
  8.13675277E-01  8.29756249E-01  8.56948459E-01  8.86761041E-01  9.04176509E-01
  9.49115073E-01  9.60029570E-01  1.00848947E+00  1.03129980E+00  1.07134933E+00
  1.08702244E+00  1.11248758E+00  1.17733702E+00  1.22113312E+00  1.29099041E+00
  1.39175056E+00  1.42531359E+00  1.44760782E+00  1.47019615E+00  1.50392746E+00
  1.54339861E+00  1.56505589E+00  1.58496549E+00  1.59697683E+00  1.61874625E+00
  1.67139477E+00  1.68861817E+00  1.69658940E+00  1.72420521E+00  1.77371605E+00
  1.78633607E+00  1.87088770E+00  1.88189507E+00  1.93846829E+00  1.98222153E+00
  2.00956188E+00  2.07105531E+00  2.12183536E+00  2.16876325E+00  2.18000439E+00
  2.19759997E+00  2.24697309E+00  2.29771338E+00  2.31669833E+00  2.35486597E+00
  2.37757317E+00  2.45550897E+00  2.46372956E+00  2.49202411E+00  2.52119264E+00
  2.55960816E+00  2.57636328E+00  2.58971957E+00  2.60130584E+00  2.63436657E+00
  2.73073257E+00  2.73499916E+00  2.75184983E+00  2.78195572E+00  2.84986437E+00
  2.86330905E+00  2.93388226E+00  3.08405325E+00  3.08876779E+00  3.18630082E+00
  3.39891890E+00  3.50903632E+00  3.70263123E+00  3.79064459E+00  3.79300540E+00
  3.93374705E+00  4.10750121E+00  4.28497434E+00  9.75766507E+00  2.37101340E+01
  2.37886299E+01  2.39405928E+01  2.42550069E+01  2.59343949E+01  2.59820313E+01
  2.64455898E+01  2.15747678E+02
Alpha MO coefficients                      R   N=       27889
  2.45000588E-07 -5.58843294E-07 -2.54362441E-06 -2.88146319E-06 -1.42453766E-06
  3.61460451E-06  2.03918840E-05  1.70459845E-05  8.43435800E-06  2.14820333E-06
  4.36428972E-05  3.32100299E-05  1.82640301E-05 -1.67387242E-03 -1.01969164E-04
  4.90866973E-04  4.75511269E-05  8.12422790E-06 -3.45882285E-06 -6.64300948E-06
  1.39558376E-05 -1.82258987E-08  1.52967808E-06 -3.17288728E-06  1.12836887E-05
 -1.42410632E-05  6.01131480E-06 -1.37423699E-05 -1.00564229E-05  2.47594025E-05
 -2.37349044E-05  1.85318805E-04  1.13478909E-04 -1.17015832E-04 -2.39244999E-05
  3.53878504E-03 -4.44715170E-04  4.11964258E-04  7.87364707E-04  1.17273547E-05
  2.28520675E-06  6.58470068E-06 -2.12441158E-06  8.89371043E-06 -7.50067210E-07
  2.10402950E-06  1.67986498E-06 -2.00921130E-06 -3.80875582E-06 -1.51815691E-05
 -1.81122188E-05  8.37588147E-06  2.23444147E-05  2.72249984E-05  4.29302046E-05
 -1.46975132E-05 -2.74991957E-05 -9.47916691E-04 -1.20237816E-03 -3.15810999E-04
 -7.91222484E-05  2.05587825E-06  3.42472198E-06 -8.67989329E-06  5.33286025E-06
 -8.62845734E-06  3.55308000E-07 -1.04160200E-06 -2.05655825E-06  6.64083351E-07
  5.37692903E-07  9.86598717E-06  1.10648137E-05 -2.98819765E-06  8.26396228E-07
 -2.48464880E-05 -6.78537313E-05 -1.55733293E-05  5.00435387E-05 -1.68582904E-03
 -3.49477021E-04 -1.80045708E-04 -1.38504341E-04 -4.89848297E-06 -1.66501217E-06
 -1.55335041E-06 -1.70389662E-06 -1.57851948E-06 -2.27832852E-06  2.66083154E-05
  5.05787637E-05  3.97347490E-05  6.46275534E-06 -2.21594130E-06  4.99989304E-06
  1.27558424E-05 -8.38404513E-05  7.49202474E-05  2.07502083E-04  9.01160694E-06
  1.37693307E-05 -1.18113764E-05  1.29305642E-06 -1.37841612E-05 -4.58473908E-05
 -1.28097458E-04  6.64415294E-07 -7.92903945E-07  9.50616064E-07  6.24988476E-06
 -4.61972331E-05  3.62688543E-05  1.14487050E-04 -1.19595071E-05  4.67128811E-07
  1.29142369E-05 -7.73683207E-07 -7.23197288E-05 -1.16006617E-04  1.11802797E-04
 -7.19917534E-06  2.62634667E-06 -1.93658121E-05  8.82331268E-06 -5.70831617E-05
 -1.04696205E-05  8.51735438E-05 -4.03653825E-06  1.07785797E-05  1.48925780E-05
 -7.53209885E-06  3.73797237E-05 -1.16495156E-04 -2.79631053E-04  5.35049489E-09
 -5.43384544E-06  9.72778636E-08  4.11609535E-01  6.54076028E-01  1.50048589E-02