(R)-3-chloro-1-butene tau=120                                           
SP        RB3LYP                                                      6-311++G(d,p)       
Number of atoms                            I               12
Info1-9                                    I   N=           9
          26          26           0           0           0         110
           1          18        -502
Full Title                                 C   N=           3
(R)-3-chloro-1-butene tau=120       
Route                                      C   N=           7
#P B3LYP/6-311++G** scf(conver=11) int=ultrafine polar=optro
t cphf(rdfreq,conver=11)
Charge                                     I                0
Multiplicity                               I                1
Number of electrons                        I               48
Number of alpha electrons                  I               24
Number of beta electrons                   I               24
Number of basis functions                  I              167
Number of independent functions            I              167
Number of point charges in /Mol/           I                0
Number of translation vectors              I                0
Atomic numbers                             I   N=          12
           6           6           6           6           1           1
           1           1           1           1           1          17
Nuclear charges                            R   N=          12
  6.00000000E+00  6.00000000E+00  6.00000000E+00  6.00000000E+00  1.00000000E+00
  1.00000000E+00  1.00000000E+00  1.00000000E+00  1.00000000E+00  1.00000000E+00
  1.00000000E+00  1.70000000E+01
Current cartesian coordinates              R   N=          36
  8.83113413E-01  3.31736078E+00  4.79669236E-02  1.59637348E-02  6.61373568E-01
 -6.23390020E-01 -2.28115710E+00 -1.83581460E-01  8.05122144E-01 -4.40682828E+00
 -9.51534179E-01 -2.96202002E-01 -4.56808741E+00 -1.05797142E+00 -2.33849273E+00
  2.63276597E+00  3.73144108E+00 -9.60641221E-01 -6.03156063E+00 -1.49411121E+00
  8.26086811E-01 -2.13192021E+00 -1.02084126E-01  2.85311612E+00 -3.08991336E-01
  4.57992476E-01 -2.64737876E+00  1.22132844E+00  3.56234488E+00  2.07512901E+00
 -6.66728597E-01  4.64833292E+00 -3.04687282E-01  2.62274372E+00 -1.57692099E+00
  5.26991635E-02
Number of symbols in /Mol/                 I                0
Force Field                                I                0
Atom Types                                 C   N=          12
                                                            
                                                            
                        
Int Atom Types                             I   N=          12
           0           0           0           0           0           0
           0           0           0           0           0           0
MM charges                                 R   N=          12
  0.00000000E+00  0.00000000E+00  0.00000000E+00  0.00000000E+00  0.00000000E+00
  0.00000000E+00  0.00000000E+00  0.00000000E+00  0.00000000E+00  0.00000000E+00
  0.00000000E+00  0.00000000E+00
Integer atomic weights                     I   N=          12
          12          12          12          12           1           1
           1           1           1           1           1          35
Real atomic weights                        R   N=          12
  1.20000000E+01  1.20000000E+01  1.20000000E+01  1.20000000E+01  1.00782504E+00
  1.00782504E+00  1.00782504E+00  1.00782504E+00  1.00782504E+00  1.00782504E+00
  1.00782504E+00  3.49688527E+01
Atom fragment info                         I   N=          12
           0           0           0           0           0           0
           0           0           0           0           0           0
Atom residue num                           I   N=          12
           0           0           0           0           0           0
           0           0           0           0           0           0
Nuclear spins                              I   N=          12
           0           0           0           0           1           1
           1           1           1           1           1           3
Nuclear ZEff                               R   N=          12
 -3.60000000E+00 -3.60000000E+00 -3.60000000E+00 -3.60000000E+00 -1.00000000E+00
 -1.00000000E+00 -1.00000000E+00 -1.00000000E+00 -1.00000000E+00 -1.00000000E+00
 -1.00000000E+00 -1.42400000E+01
Nuclear ZNuc                               R   N=          12
  6.00000000E+00  6.00000000E+00  6.00000000E+00  6.00000000E+00  1.00000000E+00
  1.00000000E+00  1.00000000E+00  1.00000000E+00  1.00000000E+00  1.00000000E+00
  1.00000000E+00  1.70000000E+01
Nuclear QMom                               R   N=          12
  0.00000000E+00  0.00000000E+00  0.00000000E+00  0.00000000E+00  0.00000000E+00
  0.00000000E+00  0.00000000E+00  0.00000000E+00  0.00000000E+00  0.00000000E+00
  0.00000000E+00 -8.16500000E+00
Nuclear GFac                               R   N=          12
  0.00000000E+00  0.00000000E+00  0.00000000E+00  0.00000000E+00  2.79284600E+00
  2.79284600E+00  2.79284600E+00  2.79284600E+00  2.79284600E+00  2.79284600E+00
  2.79284600E+00  8.21874000E-01
MicOpt                                     I   N=          12
          -1          -1          -1          -1          -1          -1
          -1          -1          -1          -1          -1          -1
Number of residues                         I                0
Number of secondary structures             I                0
SymInf integers                            I   N=          26
           1           1           1           1           1           0
           0           0           0           0           0           0
           0           0           0           0           0           0
           0           0           0           0           0           0
           0           0
RotTr to input orientation                 R   N=          12
  9.99997765E-01 -1.92851034E-03 -8.66271677E-04  1.93326411E-03  9.99982892E-01
  5.52071295E-03  8.55610104E-04 -5.52237534E-03  9.99984386E-01 -4.85480092E-04
 -2.14090617E-04  1.64142990E-03
Number of contracted shells                I               72
Number of primitive shells                 I              126
Pure/Cartesian d shells                    I                0
Pure/Cartesian f shells                    I                0
Highest angular momentum                   I                2
Largest degree of contraction              I                6
Shell types                                I   N=          72
           0          -1          -1          -1          -1          -2
           0          -1          -1          -1          -1          -2
           0          -1          -1          -1          -1          -2
           0          -1          -1          -1          -1          -2
           0           0           0           0           1           0
           0           0           0           1           0           0
           0           0           1           0           0           0
           0           1           0           0           0           0
           1           0           0           0           0           1
           0           0           0           0           1           0
           0           0           0           0           0          -1
           1           1           1           1           1          -2
Number of primitives per shell             I   N=          72
           6           3           1           1           1           1
           6           3           1           1           1           1
           6           3           1           1           1           1
           6           3           1           1           1           1
           3           1           1           1           1           3
           1           1           1           1           3           1
           1           1           1           3           1           1
           1           1           3           1           1           1
           1           3           1           1           1           1
           3           1           1           1           1           6
           3           1           1           1           1           1
           5           2           1           1           1           1
Shell to atom map                          I   N=          72
           1           1           1           1           1           1
           2           2           2           2           2           2
           3           3           3           3           3           3
           4           4           4           4           4           4
           5           5           5           5           5           6
           6           6           6           6           7           7
           7           7           7           8           8           8
           8           8           9           9           9           9
           9          10          10          10          10          10
          11          11          11          11          11          12
          12          12          12          12          12          12
          12          12          12          12          12          12
Primitive exponents                        R   N=         126
  4.56324000E+03  6.82024000E+02  1.54973000E+02  4.44553000E+01  1.30290000E+01
  1.82773000E+00  2.09642000E+01  4.80331000E+00  1.45933000E+00  4.83456000E-01
  1.45585000E-01  4.38000000E-02  6.26000000E-01  4.56324000E+03  6.82024000E+02
  1.54973000E+02  4.44553000E+01  1.30290000E+01  1.82773000E+00  2.09642000E+01
  4.80331000E+00  1.45933000E+00  4.83456000E-01  1.45585000E-01  4.38000000E-02
  6.26000000E-01  4.56324000E+03  6.82024000E+02  1.54973000E+02  4.44553000E+01
  1.30290000E+01  1.82773000E+00  2.09642000E+01  4.80331000E+00  1.45933000E+00
  4.83456000E-01  1.45585000E-01  4.38000000E-02  6.26000000E-01  4.56324000E+03
  6.82024000E+02  1.54973000E+02  4.44553000E+01  1.30290000E+01  1.82773000E+00
  2.09642000E+01  4.80331000E+00  1.45933000E+00  4.83456000E-01  1.45585000E-01
  4.38000000E-02  6.26000000E-01  3.38650000E+01  5.09479000E+00  1.15879000E+00
  3.25840000E-01  1.02741000E-01  3.60000000E-02  7.50000000E-01  3.38650000E+01
  5.09479000E+00  1.15879000E+00  3.25840000E-01  1.02741000E-01  3.60000000E-02
  7.50000000E-01  3.38650000E+01  5.09479000E+00  1.15879000E+00  3.25840000E-01
  1.02741000E-01  3.60000000E-02  7.50000000E-01  3.38650000E+01  5.09479000E+00
  1.15879000E+00  3.25840000E-01  1.02741000E-01  3.60000000E-02  7.50000000E-01
  3.38650000E+01  5.09479000E+00  1.15879000E+00  3.25840000E-01  1.02741000E-01
  3.60000000E-02  7.50000000E-01  3.38650000E+01  5.09479000E+00  1.15879000E+00
  3.25840000E-01  1.02741000E-01  3.60000000E-02  7.50000000E-01  3.38650000E+01
  5.09479000E+00  1.15879000E+00  3.25840000E-01  1.02741000E-01  3.60000000E-02
  7.50000000E-01  1.05819000E+05  1.58720000E+04  3.61965000E+03  1.03080000E+03
  3.39908000E+02  1.24538000E+02  1.24538000E+02  4.95135000E+01  2.08056000E+01
  6.58346000E+00  2.56468000E+00  5.59763000E-01  1.83273000E-01  4.83000000E-02
  5.89776000E+02  1.39849000E+02  4.51413000E+01  1.68733000E+01  2.77152000E+00
  6.74110000E+00  2.77152000E+00  1.02387000E+00  3.81368000E-01  1.09437000E-01
  7.50000000E-01
Contraction coefficients                   R   N=         126
  1.96665025E-03  1.52306019E-02  7.61269097E-02  2.60801033E-01  6.16462078E-01
  2.21006028E-01  1.14660081E-01  9.19999648E-01 -3.03068213E-03  1.00000000E+00
  1.00000000E+00  1.00000000E+00  1.00000000E+00  1.96665025E-03  1.52306019E-02
  7.61269097E-02  2.60801033E-01  6.16462078E-01  2.21006028E-01  1.14660081E-01
  9.19999648E-01 -3.03068213E-03  1.00000000E+00  1.00000000E+00  1.00000000E+00
  1.00000000E+00  1.96665025E-03  1.52306019E-02  7.61269097E-02  2.60801033E-01
  6.16462078E-01  2.21006028E-01  1.14660081E-01  9.19999648E-01 -3.03068213E-03
  1.00000000E+00  1.00000000E+00  1.00000000E+00  1.00000000E+00  1.96665025E-03
  1.52306019E-02  7.61269097E-02  2.60801033E-01  6.16462078E-01  2.21006028E-01
  1.14660081E-01  9.19999648E-01 -3.03068213E-03  1.00000000E+00  1.00000000E+00
  1.00000000E+00  1.00000000E+00  2.54938145E-02  1.90373109E-01  8.52161486E-01
  1.00000000E+00  1.00000000E+00  1.00000000E+00  1.00000000E+00  2.54938145E-02
  1.90373109E-01  8.52161486E-01  1.00000000E+00  1.00000000E+00  1.00000000E+00
  1.00000000E+00  2.54938145E-02  1.90373109E-01  8.52161486E-01  1.00000000E+00
  1.00000000E+00  1.00000000E+00  1.00000000E+00  2.54938145E-02  1.90373109E-01
  8.52161486E-01  1.00000000E+00  1.00000000E+00  1.00000000E+00  1.00000000E+00
  2.54938145E-02  1.90373109E-01  8.52161486E-01  1.00000000E+00  1.00000000E+00
  1.00000000E+00  1.00000000E+00  2.54938145E-02  1.90373109E-01  8.52161486E-01
  1.00000000E+00  1.00000000E+00  1.00000000E+00  1.00000000E+00  2.54938145E-02
  1.90373109E-01  8.52161486E-01  1.00000000E+00  1.00000000E+00  1.00000000E+00
  1.00000000E+00  7.38000247E-04  5.71800191E-03  2.94950099E-02  1.17286039E-01
  3.62949121E-01  5.84149195E-01  1.34176973E-01  6.24249876E-01  2.91755942E-01
  1.00000000E+00  1.00000000E+00  1.00000000E+00  1.00000000E+00  1.00000000E+00
  3.66556935E-03  2.83679194E-02  1.24756603E-01  3.39654631E-01  7.47585963E-01
 -1.57224381E+00  9.92388882E-01  1.00000000E+00  1.00000000E+00  1.00000000E+00
  1.00000000E+00
P(S=P) Contraction coefficients            R   N=         126
  0.00000000E+00  0.00000000E+00  0.00000000E+00  0.00000000E+00  0.00000000E+00
  0.00000000E+00  4.02486927E-02  2.37593957E-01  8.15853851E-01  1.00000000E+00
  1.00000000E+00  1.00000000E+00  0.00000000E+00  0.00000000E+00  0.00000000E+00
  0.00000000E+00  0.00000000E+00  0.00000000E+00  0.00000000E+00  4.02486927E-02
  2.37593957E-01  8.15853851E-01  1.00000000E+00  1.00000000E+00  1.00000000E+00
  0.00000000E+00  0.00000000E+00  0.00000000E+00  0.00000000E+00  0.00000000E+00
  0.00000000E+00  0.00000000E+00  4.02486927E-02  2.37593957E-01  8.15853851E-01
  1.00000000E+00  1.00000000E+00  1.00000000E+00  0.00000000E+00  0.00000000E+00
  0.00000000E+00  0.00000000E+00  0.00000000E+00  0.00000000E+00  0.00000000E+00
  4.02486927E-02  2.37593957E-01  8.15853851E-01  1.00000000E+00  1.00000000E+00
  1.00000000E+00  0.00000000E+00  0.00000000E+00  0.00000000E+00  0.00000000E+00
  0.00000000E+00  0.00000000E+00  0.00000000E+00  0.00000000E+00  0.00000000E+00
  0.00000000E+00  0.00000000E+00  0.00000000E+00  0.00000000E+00  0.00000000E+00
  0.00000000E+00  0.00000000E+00  0.00000000E+00  0.00000000E+00  0.00000000E+00
  0.00000000E+00  0.00000000E+00  0.00000000E+00  0.00000000E+00  0.00000000E+00
  0.00000000E+00  0.00000000E+00  0.00000000E+00  0.00000000E+00  0.00000000E+00
  0.00000000E+00  0.00000000E+00  0.00000000E+00  0.00000000E+00  0.00000000E+00
  0.00000000E+00  0.00000000E+00  0.00000000E+00  0.00000000E+00  0.00000000E+00
  0.00000000E+00  0.00000000E+00  0.00000000E+00  0.00000000E+00  0.00000000E+00
  0.00000000E+00  0.00000000E+00  0.00000000E+00  0.00000000E+00  0.00000000E+00
  0.00000000E+00  0.00000000E+00  0.00000000E+00  0.00000000E+00  0.00000000E+00
  0.00000000E+00  0.00000000E+00  0.00000000E+00  0.00000000E+00  0.00000000E+00
  0.00000000E+00  0.00000000E+00  0.00000000E+00  0.00000000E+00  1.00000000E+00
  0.00000000E+00  0.00000000E+00  0.00000000E+00  0.00000000E+00  0.00000000E+00
  0.00000000E+00  0.00000000E+00  0.00000000E+00  0.00000000E+00  0.00000000E+00
  0.00000000E+00
Coordinates of each shell                  R   N=         216
  8.83113413E-01  3.31736078E+00  4.79669236E-02  8.83113413E-01  3.31736078E+00
  4.79669236E-02  8.83113413E-01  3.31736078E+00  4.79669236E-02  8.83113413E-01
  3.31736078E+00  4.79669236E-02  8.83113413E-01  3.31736078E+00  4.79669236E-02
  8.83113413E-01  3.31736078E+00  4.79669236E-02  1.59637348E-02  6.61373568E-01
 -6.23390020E-01  1.59637348E-02  6.61373568E-01 -6.23390020E-01  1.59637348E-02
  6.61373568E-01 -6.23390020E-01  1.59637348E-02  6.61373568E-01 -6.23390020E-01
  1.59637348E-02  6.61373568E-01 -6.23390020E-01  1.59637348E-02  6.61373568E-01
 -6.23390020E-01 -2.28115710E+00 -1.83581460E-01  8.05122144E-01 -2.28115710E+00
 -1.83581460E-01  8.05122144E-01 -2.28115710E+00 -1.83581460E-01  8.05122144E-01
 -2.28115710E+00 -1.83581460E-01  8.05122144E-01 -2.28115710E+00 -1.83581460E-01
  8.05122144E-01 -2.28115710E+00 -1.83581460E-01  8.05122144E-01 -4.40682828E+00
 -9.51534179E-01 -2.96202002E-01 -4.40682828E+00 -9.51534179E-01 -2.96202002E-01
 -4.40682828E+00 -9.51534179E-01 -2.96202002E-01 -4.40682828E+00 -9.51534179E-01
 -2.96202002E-01 -4.40682828E+00 -9.51534179E-01 -2.96202002E-01 -4.40682828E+00
 -9.51534179E-01 -2.96202002E-01 -4.56808741E+00 -1.05797142E+00 -2.33849273E+00
 -4.56808741E+00 -1.05797142E+00 -2.33849273E+00 -4.56808741E+00 -1.05797142E+00
 -2.33849273E+00 -4.56808741E+00 -1.05797142E+00 -2.33849273E+00 -4.56808741E+00
 -1.05797142E+00 -2.33849273E+00  2.63276597E+00  3.73144108E+00 -9.60641221E-01
  2.63276597E+00  3.73144108E+00 -9.60641221E-01  2.63276597E+00  3.73144108E+00
 -9.60641221E-01  2.63276597E+00  3.73144108E+00 -9.60641221E-01  2.63276597E+00
  3.73144108E+00 -9.60641221E-01 -6.03156063E+00 -1.49411121E+00  8.26086811E-01
 -6.03156063E+00 -1.49411121E+00  8.26086811E-01 -6.03156063E+00 -1.49411121E+00
  8.26086811E-01 -6.03156063E+00 -1.49411121E+00  8.26086811E-01 -6.03156063E+00
 -1.49411121E+00  8.26086811E-01 -2.13192021E+00 -1.02084126E-01  2.85311612E+00
 -2.13192021E+00 -1.02084126E-01  2.85311612E+00 -2.13192021E+00 -1.02084126E-01
  2.85311612E+00 -2.13192021E+00 -1.02084126E-01  2.85311612E+00 -2.13192021E+00
 -1.02084126E-01  2.85311612E+00 -3.08991336E-01  4.57992476E-01 -2.64737876E+00
 -3.08991336E-01  4.57992476E-01 -2.64737876E+00 -3.08991336E-01  4.57992476E-01
 -2.64737876E+00 -3.08991336E-01  4.57992476E-01 -2.64737876E+00 -3.08991336E-01
  4.57992476E-01 -2.64737876E+00  1.22132844E+00  3.56234488E+00  2.07512901E+00
  1.22132844E+00  3.56234488E+00  2.07512901E+00  1.22132844E+00  3.56234488E+00
  2.07512901E+00  1.22132844E+00  3.56234488E+00  2.07512901E+00  1.22132844E+00
  3.56234488E+00  2.07512901E+00 -6.66728597E-01  4.64833292E+00 -3.04687282E-01
 -6.66728597E-01  4.64833292E+00 -3.04687282E-01 -6.66728597E-01  4.64833292E+00
 -3.04687282E-01 -6.66728597E-01  4.64833292E+00 -3.04687282E-01 -6.66728597E-01
  4.64833292E+00 -3.04687282E-01  2.62274372E+00 -1.57692099E+00  5.26991635E-02
  2.62274372E+00 -1.57692099E+00  5.26991635E-02  2.62274372E+00 -1.57692099E+00
  5.26991635E-02  2.62274372E+00 -1.57692099E+00  5.26991635E-02  2.62274372E+00
 -1.57692099E+00  5.26991635E-02  2.62274372E+00 -1.57692099E+00  5.26991635E-02
  2.62274372E+00 -1.57692099E+00  5.26991635E-02  2.62274372E+00 -1.57692099E+00
  5.26991635E-02  2.62274372E+00 -1.57692099E+00  5.26991635E-02  2.62274372E+00
 -1.57692099E+00  5.26991635E-02  2.62274372E+00 -1.57692099E+00  5.26991635E-02
  2.62274372E+00 -1.57692099E+00  5.26991635E-02  2.62274372E+00 -1.57692099E+00
  5.26991635E-02
Constraint Structure                       R   N=          36
  8.83113413E-01  3.31736078E+00  4.79669236E-02  1.59637348E-02  6.61373568E-01
 -6.23390020E-01 -2.28115710E+00 -1.83581460E-01  8.05122144E-01 -4.40682828E+00
 -9.51534179E-01 -2.96202002E-01 -4.56808741E+00 -1.05797142E+00 -2.33849273E+00
  2.63276597E+00  3.73144108E+00 -9.60641221E-01 -6.03156063E+00 -1.49411121E+00
  8.26086811E-01 -2.13192021E+00 -1.02084126E-01  2.85311612E+00 -3.08991336E-01
  4.57992476E-01 -2.64737876E+00  1.22132844E+00  3.56234488E+00  2.07512901E+00
 -6.66728597E-01  4.64833292E+00 -3.04687282E-01  2.62274372E+00 -1.57692099E+00
  5.26991635E-02
Num ILSW                                   I              100
ILSW                                       I   N=         100
           0           0           0           0           2           0
           0           0           0           0         402          -1
           5           0           0           0           0           0
           0           0           0           0           0           0
           1           0           0           0           0           0
           0           0      100000           0          -1           0
           0           0           0           0           0           0
           0           0           0           1           0           0
           0           0           1           0           0           0
           0           0           4          41           0           0
           0           0           5           0           0           0
           0           0           0           0           0           0
           0           0           0           0           0           0
           0           0           0           0           0           0
           0           0           0           0           0           0
           0           0           0           0           0           0
           0           0           0           0
Num RLSW                                   I               41
RLSW                                       R   N=          41
  8.00000000E-01  7.20000000E-01  1.00000000E+00  8.10000000E-01  2.00000000E-01
  0.00000000E+00  0.00000000E+00  1.00000000E+00  0.00000000E+00  0.00000000E+00
  0.00000000E+00  0.00000000E+00  1.00000000E+00  0.00000000E+00  0.00000000E+00
  0.00000000E+00  0.00000000E+00  1.00000000E+00  0.00000000E+00  0.00000000E+00
  0.00000000E+00  0.00000000E+00  1.00000000E+00  0.00000000E+00  0.00000000E+00
  0.00000000E+00  0.00000000E+00  1.00000000E+00  0.00000000E+00  0.00000000E+00
  0.00000000E+00  0.00000000E+00  0.00000000E+00  0.00000000E+00  0.00000000E+00
  0.00000000E+00  0.00000000E+00  0.00000000E+00  1.00000000E+00  1.00000000E+00
  0.00000000E+00
MxBond                                     I                4
NBond                                      I   N=          12
           4           4           3           3           1           1
           1           1           1           1           1           1
IBond                                      I   N=          48
           2           6          10          11           1           3
           9          12           2           4           8           0
           3           5           7           0           4           0
           0           0           1           0           0           0
           4           0           0           0           3           0
           0           0           2           0           0           0
           1           0           0           0           1           0
           0           0           2           0           0           0
RBond                                      R   N=          48
  1.00000000E+00  1.00000000E+00  1.00000000E+00  1.00000000E+00  1.00000000E+00
  1.00000000E+00  1.00000000E+00  1.00000000E+00  1.00000000E+00  2.00000000E+00
  1.00000000E+00  0.00000000E+00  2.00000000E+00  1.00000000E+00  1.00000000E+00
  0.00000000E+00  1.00000000E+00  0.00000000E+00  0.00000000E+00  0.00000000E+00
  1.00000000E+00  0.00000000E+00  0.00000000E+00  0.00000000E+00  1.00000000E+00
  0.00000000E+00  0.00000000E+00  0.00000000E+00  1.00000000E+00  0.00000000E+00
  0.00000000E+00  0.00000000E+00  1.00000000E+00  0.00000000E+00  0.00000000E+00
  0.00000000E+00  1.00000000E+00  0.00000000E+00  0.00000000E+00  0.00000000E+00
  1.00000000E+00  0.00000000E+00  0.00000000E+00  0.00000000E+00  1.00000000E+00
  0.00000000E+00  0.00000000E+00  0.00000000E+00
Virial Ratio                               R      2.003072174413194E+00
SCF Energy                                 R     -6.168939866241759E+02
Total Energy                               R     -6.168939866241759E+02
RMS Density                                R      9.527482012608353E-12
Nuclear derivative order                   I                0
External E-field                           R   N=          35
  0.00000000E+00  0.00000000E+00  0.00000000E+00  0.00000000E+00  0.00000000E+00
  0.00000000E+00  0.00000000E+00  0.00000000E+00  0.00000000E+00  0.00000000E+00
  0.00000000E+00  0.00000000E+00  0.00000000E+00  0.00000000E+00  0.00000000E+00
  0.00000000E+00  0.00000000E+00  0.00000000E+00  0.00000000E+00  0.00000000E+00
  0.00000000E+00  0.00000000E+00  0.00000000E+00  0.00000000E+00  0.00000000E+00
  0.00000000E+00  0.00000000E+00  0.00000000E+00  0.00000000E+00  0.00000000E+00
  0.00000000E+00  0.00000000E+00  0.00000000E+00  0.00000000E+00  0.00000000E+00
IOpCl                                      I                0
IROHF                                      I                0
Alpha Orbital Energies                     R   N=         167
 -1.01534297E+02 -1.02477799E+01 -1.01937845E+01 -1.01838009E+01 -1.01819917E+01
 -9.44872237E+00 -7.21306170E+00 -7.20364071E+00 -7.20347711E+00 -8.67372435E-01
 -7.87005520E-01 -7.42592643E-01 -6.39361022E-01 -5.77893836E-01 -4.85450082E-01
 -4.75608897E-01 -4.46107743E-01 -4.17290534E-01 -4.03895203E-01 -3.71096884E-01
 -3.68207256E-01 -3.05923073E-01 -2.98921527E-01 -2.80491832E-01 -3.21592325E-02
 -7.44466208E-03  6.04928180E-03  7.48807324E-03  2.17303790E-02  2.80931475E-02
  3.85569554E-02  4.12811013E-02  6.28752409E-02  6.49005865E-02  7.21741477E-02
  8.32420489E-02  8.76082180E-02  9.89233027E-02  1.11190311E-01  1.15875480E-01
  1.18256150E-01  1.21494778E-01  1.29095606E-01  1.30928273E-01  1.34937330E-01
  1.42671079E-01  1.49031897E-01  1.55872804E-01  1.60801925E-01  1.64815291E-01
  1.70648624E-01  1.87915578E-01  1.91718966E-01  2.13483239E-01  2.18088030E-01
  2.26300835E-01  2.47974852E-01  2.59858360E-01  2.71564672E-01  2.91852956E-01
  3.41264198E-01  3.56021781E-01  3.90538516E-01  4.26071877E-01  4.30717394E-01
  4.47864045E-01  4.58509869E-01  4.78050471E-01  4.86566712E-01  4.95259756E-01
  5.23937189E-01  5.28659345E-01  5.65695323E-01  5.87844062E-01  5.99155886E-01
  6.25045146E-01  6.33883454E-01  6.46165468E-01  6.57702456E-01  6.65246552E-01
  6.92358978E-01  7.05282620E-01  7.37762523E-01  7.40692961E-01  7.88040702E-01
  8.18402613E-01  8.32145213E-01  8.55406332E-01  8.92856084E-01  9.04845029E-01
  9.41720880E-01  9.62885857E-01  1.00606391E+00  1.03123608E+00  1.06609988E+00
  1.08285151E+00  1.12815281E+00  1.17641403E+00  1.19761953E+00  1.29336251E+00
  1.39111337E+00  1.42381012E+00  1.43340041E+00  1.47022462E+00  1.50692268E+00
  1.54037608E+00  1.57111792E+00  1.58756336E+00  1.59243476E+00  1.62777529E+00
  1.67137042E+00  1.68800655E+00  1.69948230E+00  1.72589526E+00  1.77362122E+00
  1.78768979E+00  1.87144983E+00  1.87740189E+00  1.93475210E+00  1.99574371E+00
  2.01544240E+00  2.06629985E+00  2.10493684E+00  2.17135504E+00  2.18971271E+00
  2.20385501E+00  2.24306762E+00  2.30379897E+00  2.30626577E+00  2.35719687E+00
  2.36315276E+00  2.45910496E+00  2.48786964E+00  2.49433430E+00  2.52788565E+00
  2.56579463E+00  2.57777273E+00  2.58215888E+00  2.60840434E+00  2.64016127E+00
  2.72577020E+00  2.72698803E+00  2.74889664E+00  2.78213903E+00  2.84840408E+00
  2.87104566E+00  2.93100346E+00  3.07875898E+00  3.08905435E+00  3.18255023E+00
  3.39678069E+00  3.50542227E+00  3.70197152E+00  3.72238087E+00  3.86345031E+00
  3.94797259E+00  4.12935827E+00  4.28255759E+00  9.75482663E+00  2.37224131E+01
  2.37856650E+01  2.39425044E+01  2.42545985E+01  2.59312109E+01  2.59743032E+01
  2.64444392E+01  2.15744552E+02
Alpha MO coefficients                      R   N=       27889
  1.84692624E-07 -4.14095805E-07 -2.83683258E-06 -2.22056226E-06 -9.15007623E-07
  1.24143106E-06  2.00588420E-05  1.54179699E-05  7.81724675E-06  5.28861066E-06
  3.36685725E-05  2.70051172E-05  2.01205405E-05 -1.75699345E-03 -1.59990991E-04
  5.21774707E-04  5.11949289E-05  6.89602301E-06 -3.40567802E-06 -3.28987339E-06
  1.33142315E-05 -1.32219146E-07  1.49315062E-06 -3.10592179E-06  1.21920707E-05
 -1.18833552E-05  5.35739218E-06 -1.50506547E-05 -1.39203842E-05  1.90726729E-05
 -1.95428638E-05  1.69489775E-04  1.29949353E-04 -1.20683645E-04 -7.90952167E-06
  3.58349980E-03 -4.50863277E-04  4.85607227E-04  7.87101363E-04  9.71752890E-06
 -8.29763234E-07  4.20354897E-06 -2.63862992E-06  7.90677379E-06 -5.99833993E-07
  1.75585693E-06  4.18588740E-06 -2.55171645E-06 -4.25257669E-06 -8.85009174E-06
 -2.47116529E-05  9.71612538E-06  2.53838936E-05  2.67694149E-05  1.88180960E-05
 -8.58416958E-06 -6.28555189E-05 -9.24023680E-04 -1.18955616E-03 -3.71533285E-04
 -1.31071546E-04  6.50722744E-06  6.00793005E-06 -5.75448986E-06  1.19522125E-06
 -3.92018109E-06  3.20706144E-07 -9.55693971E-07 -1.75998991E-06  6.28375625E-07
  7.25232628E-07  1.00936386E-05  8.21688480E-06 -2.33401313E-06  1.25283129E-06
 -5.83966247E-05 -8.60508993E-05 -2.05204095E-05  6.39092279E-05 -1.72069963E-03
 -3.48056961E-04 -1.88159912E-04 -1.19120460E-04 -4.85155918E-06 -1.79765136E-06
 -3.66563450E-06 -1.96393258E-06 -1.83604364E-06 -3.01234072E-06  3.47179941E-05
  6.45054272E-05  5.25206789E-05  6.49251458E-06  4.32985598E-09  6.43945976E-06
  1.20254974E-05 -8.62428406E-05  9.95247631E-05  2.41690328E-04  8.68038030E-06
  1.18522854E-05 -1.02470876E-05  2.27218891E-06 -2.10690052E-05 -5.19365598E-05
 -1.29949960E-04 -7.44991985E-07 -1.76920065E-07  1.24004646E-06  5.79249805E-06
 -3.55364331E-05  6.39524577E-05  1.49080464E-04 -1.10510647E-05  1.85167531E-06
  1.35967835E-05 -1.03276798E-06 -6.23869274E-05 -1.11971809E-04  1.14101862E-04
 -6.95192856E-06  2.05547022E-06 -1.63877100E-05  1.05710584E-05 -6.05643500E-05
 -1.52317570E-06  8.22722248E-05 -5.54388510E-06  1.26700968E-05  1.39258539E-05
 -7.76576687E-06  3.84790918E-05 -1.25490390E-04 -3.08665229E-04  7.46581381E-07
 -5.00129674E-06 -3.99915053E-07  4.11609652E-01  6.54076213E-01  1.50037323E-02