(R)-3-chloro-1-butene tau=120                                           
SP        RB3LYP                                                      6-311++G(d,p)       
Number of atoms                            I               12
Info1-9                                    I   N=           9
          26          26           0           0           0         110
           1          18        -502
Full Title                                 C   N=           3
(R)-3-chloro-1-butene tau=120       
Route                                      C   N=           7
#P B3LYP/6-311++G** scf(conver=11) int=ultrafine polar=optro
t cphf(rdfreq,conver=11)
Charge                                     I                0
Multiplicity                               I                1
Number of electrons                        I               48
Number of alpha electrons                  I               24
Number of beta electrons                   I               24
Number of basis functions                  I              167
Number of independent functions            I              167
Number of point charges in /Mol/           I                0
Number of translation vectors              I                0
Atomic numbers                             I   N=          12
           6           6           6           6           1           1
           1           1           1           1           1          17
Nuclear charges                            R   N=          12
  6.00000000E+00  6.00000000E+00  6.00000000E+00  6.00000000E+00  1.00000000E+00
  1.00000000E+00  1.00000000E+00  1.00000000E+00  1.00000000E+00  1.00000000E+00
  1.00000000E+00  1.70000000E+01
Current cartesian coordinates              R   N=          36
  8.14430576E-01  3.31182566E+00  8.90594823E-02 -7.69682619E-02  7.02159551E-01
 -6.60683939E-01 -2.28305377E+00 -1.81679222E-01  8.38935135E-01 -4.37079508E+00
 -1.00560179E+00 -2.86424870E-01 -4.52267447E+00 -9.66164092E-01 -2.33652831E+00
  2.54069152E+00  3.84359802E+00 -9.04670878E-01 -5.97709994E+00 -1.75173181E+00
  7.54549269E-01 -2.05527725E+00 -2.11815283E-01  2.88239834E+00 -3.94230262E-01
  4.84678010E-01 -2.68237514E+00  1.19757312E+00  3.34296773E+00  2.11989851E+00
 -6.53652415E-01  4.71497454E+00 -3.18601445E-01  2.66841111E+00 -1.55392543E+00
  3.52949887E-02
Number of symbols in /Mol/                 I                0
Force Field                                I                0
Atom Types                                 C   N=          12
                                                            
                                                            
                        
Int Atom Types                             I   N=          12
           0           0           0           0           0           0
           0           0           0           0           0           0
MM charges                                 R   N=          12
  0.00000000E+00  0.00000000E+00  0.00000000E+00  0.00000000E+00  0.00000000E+00
  0.00000000E+00  0.00000000E+00  0.00000000E+00  0.00000000E+00  0.00000000E+00
  0.00000000E+00  0.00000000E+00
Integer atomic weights                     I   N=          12
          12          12          12          12           1           1
           1           1           1           1           1          35
Real atomic weights                        R   N=          12
  1.20000000E+01  1.20000000E+01  1.20000000E+01  1.20000000E+01  1.00782504E+00
  1.00782504E+00  1.00782504E+00  1.00782504E+00  1.00782504E+00  1.00782504E+00
  1.00782504E+00  3.49688527E+01
Atom fragment info                         I   N=          12
           0           0           0           0           0           0
           0           0           0           0           0           0
Atom residue num                           I   N=          12
           0           0           0           0           0           0
           0           0           0           0           0           0
Nuclear spins                              I   N=          12
           0           0           0           0           1           1
           1           1           1           1           1           3
Nuclear ZEff                               R   N=          12
 -3.60000000E+00 -3.60000000E+00 -3.60000000E+00 -3.60000000E+00 -1.00000000E+00
 -1.00000000E+00 -1.00000000E+00 -1.00000000E+00 -1.00000000E+00 -1.00000000E+00
 -1.00000000E+00 -1.42400000E+01
Nuclear ZNuc                               R   N=          12
  6.00000000E+00  6.00000000E+00  6.00000000E+00  6.00000000E+00  1.00000000E+00
  1.00000000E+00  1.00000000E+00  1.00000000E+00  1.00000000E+00  1.00000000E+00
  1.00000000E+00  1.70000000E+01
Nuclear QMom                               R   N=          12
  0.00000000E+00  0.00000000E+00  0.00000000E+00  0.00000000E+00  0.00000000E+00
  0.00000000E+00  0.00000000E+00  0.00000000E+00  0.00000000E+00  0.00000000E+00
  0.00000000E+00 -8.16500000E+00
Nuclear GFac                               R   N=          12
  0.00000000E+00  0.00000000E+00  0.00000000E+00  0.00000000E+00  2.79284600E+00
  2.79284600E+00  2.79284600E+00  2.79284600E+00  2.79284600E+00  2.79284600E+00
  2.79284600E+00  8.21874000E-01
MicOpt                                     I   N=          12
          -1          -1          -1          -1          -1          -1
          -1          -1          -1          -1          -1          -1
Number of residues                         I                0
Number of secondary structures             I                0
SymInf integers                            I   N=          26
           1           1           1           1           1           0
           0           0           0           0           0           0
           0           0           0           0           0           0
           0           0           0           0           0           0
           0           0
RotTr to input orientation                 R   N=          12
  9.99859738E-01 -1.64389891E-02  3.20381031E-03  1.64586582E-02  9.99845245E-01
 -6.21280284E-03 -3.10118230E-03  6.26466183E-03  9.99975568E-01  6.88623289E-04
 -1.74189837E-03 -4.10011517E-05
Number of contracted shells                I               72
Number of primitive shells                 I              126
Pure/Cartesian d shells                    I                0
Pure/Cartesian f shells                    I                0
Highest angular momentum                   I                2
Largest degree of contraction              I                6
Shell types                                I   N=          72
           0          -1          -1          -1          -1          -2
           0          -1          -1          -1          -1          -2
           0          -1          -1          -1          -1          -2
           0          -1          -1          -1          -1          -2
           0           0           0           0           1           0
           0           0           0           1           0           0
           0           0           1           0           0           0
           0           1           0           0           0           0
           1           0           0           0           0           1
           0           0           0           0           1           0
           0           0           0           0           0          -1
           1           1           1           1           1          -2
Number of primitives per shell             I   N=          72
           6           3           1           1           1           1
           6           3           1           1           1           1
           6           3           1           1           1           1
           6           3           1           1           1           1
           3           1           1           1           1           3
           1           1           1           1           3           1
           1           1           1           3           1           1
           1           1           3           1           1           1
           1           3           1           1           1           1
           3           1           1           1           1           6
           3           1           1           1           1           1
           5           2           1           1           1           1
Shell to atom map                          I   N=          72
           1           1           1           1           1           1
           2           2           2           2           2           2
           3           3           3           3           3           3
           4           4           4           4           4           4
           5           5           5           5           5           6
           6           6           6           6           7           7
           7           7           7           8           8           8
           8           8           9           9           9           9
           9          10          10          10          10          10
          11          11          11          11          11          12
          12          12          12          12          12          12
          12          12          12          12          12          12
Primitive exponents                        R   N=         126
  4.56324000E+03  6.82024000E+02  1.54973000E+02  4.44553000E+01  1.30290000E+01
  1.82773000E+00  2.09642000E+01  4.80331000E+00  1.45933000E+00  4.83456000E-01
  1.45585000E-01  4.38000000E-02  6.26000000E-01  4.56324000E+03  6.82024000E+02
  1.54973000E+02  4.44553000E+01  1.30290000E+01  1.82773000E+00  2.09642000E+01
  4.80331000E+00  1.45933000E+00  4.83456000E-01  1.45585000E-01  4.38000000E-02
  6.26000000E-01  4.56324000E+03  6.82024000E+02  1.54973000E+02  4.44553000E+01
  1.30290000E+01  1.82773000E+00  2.09642000E+01  4.80331000E+00  1.45933000E+00
  4.83456000E-01  1.45585000E-01  4.38000000E-02  6.26000000E-01  4.56324000E+03
  6.82024000E+02  1.54973000E+02  4.44553000E+01  1.30290000E+01  1.82773000E+00
  2.09642000E+01  4.80331000E+00  1.45933000E+00  4.83456000E-01  1.45585000E-01
  4.38000000E-02  6.26000000E-01  3.38650000E+01  5.09479000E+00  1.15879000E+00
  3.25840000E-01  1.02741000E-01  3.60000000E-02  7.50000000E-01  3.38650000E+01
  5.09479000E+00  1.15879000E+00  3.25840000E-01  1.02741000E-01  3.60000000E-02
  7.50000000E-01  3.38650000E+01  5.09479000E+00  1.15879000E+00  3.25840000E-01
  1.02741000E-01  3.60000000E-02  7.50000000E-01  3.38650000E+01  5.09479000E+00
  1.15879000E+00  3.25840000E-01  1.02741000E-01  3.60000000E-02  7.50000000E-01
  3.38650000E+01  5.09479000E+00  1.15879000E+00  3.25840000E-01  1.02741000E-01
  3.60000000E-02  7.50000000E-01  3.38650000E+01  5.09479000E+00  1.15879000E+00
  3.25840000E-01  1.02741000E-01  3.60000000E-02  7.50000000E-01  3.38650000E+01
  5.09479000E+00  1.15879000E+00  3.25840000E-01  1.02741000E-01  3.60000000E-02
  7.50000000E-01  1.05819000E+05  1.58720000E+04  3.61965000E+03  1.03080000E+03
  3.39908000E+02  1.24538000E+02  1.24538000E+02  4.95135000E+01  2.08056000E+01
  6.58346000E+00  2.56468000E+00  5.59763000E-01  1.83273000E-01  4.83000000E-02
  5.89776000E+02  1.39849000E+02  4.51413000E+01  1.68733000E+01  2.77152000E+00
  6.74110000E+00  2.77152000E+00  1.02387000E+00  3.81368000E-01  1.09437000E-01
  7.50000000E-01
Contraction coefficients                   R   N=         126
  1.96665025E-03  1.52306019E-02  7.61269097E-02  2.60801033E-01  6.16462078E-01
  2.21006028E-01  1.14660081E-01  9.19999648E-01 -3.03068213E-03  1.00000000E+00
  1.00000000E+00  1.00000000E+00  1.00000000E+00  1.96665025E-03  1.52306019E-02
  7.61269097E-02  2.60801033E-01  6.16462078E-01  2.21006028E-01  1.14660081E-01
  9.19999648E-01 -3.03068213E-03  1.00000000E+00  1.00000000E+00  1.00000000E+00
  1.00000000E+00  1.96665025E-03  1.52306019E-02  7.61269097E-02  2.60801033E-01
  6.16462078E-01  2.21006028E-01  1.14660081E-01  9.19999648E-01 -3.03068213E-03
  1.00000000E+00  1.00000000E+00  1.00000000E+00  1.00000000E+00  1.96665025E-03
  1.52306019E-02  7.61269097E-02  2.60801033E-01  6.16462078E-01  2.21006028E-01
  1.14660081E-01  9.19999648E-01 -3.03068213E-03  1.00000000E+00  1.00000000E+00
  1.00000000E+00  1.00000000E+00  2.54938145E-02  1.90373109E-01  8.52161486E-01
  1.00000000E+00  1.00000000E+00  1.00000000E+00  1.00000000E+00  2.54938145E-02
  1.90373109E-01  8.52161486E-01  1.00000000E+00  1.00000000E+00  1.00000000E+00
  1.00000000E+00  2.54938145E-02  1.90373109E-01  8.52161486E-01  1.00000000E+00
  1.00000000E+00  1.00000000E+00  1.00000000E+00  2.54938145E-02  1.90373109E-01
  8.52161486E-01  1.00000000E+00  1.00000000E+00  1.00000000E+00  1.00000000E+00
  2.54938145E-02  1.90373109E-01  8.52161486E-01  1.00000000E+00  1.00000000E+00
  1.00000000E+00  1.00000000E+00  2.54938145E-02  1.90373109E-01  8.52161486E-01
  1.00000000E+00  1.00000000E+00  1.00000000E+00  1.00000000E+00  2.54938145E-02
  1.90373109E-01  8.52161486E-01  1.00000000E+00  1.00000000E+00  1.00000000E+00
  1.00000000E+00  7.38000247E-04  5.71800191E-03  2.94950099E-02  1.17286039E-01
  3.62949121E-01  5.84149195E-01  1.34176973E-01  6.24249876E-01  2.91755942E-01
  1.00000000E+00  1.00000000E+00  1.00000000E+00  1.00000000E+00  1.00000000E+00
  3.66556935E-03  2.83679194E-02  1.24756603E-01  3.39654631E-01  7.47585963E-01
 -1.57224381E+00  9.92388882E-01  1.00000000E+00  1.00000000E+00  1.00000000E+00
  1.00000000E+00
P(S=P) Contraction coefficients            R   N=         126
  0.00000000E+00  0.00000000E+00  0.00000000E+00  0.00000000E+00  0.00000000E+00
  0.00000000E+00  4.02486927E-02  2.37593957E-01  8.15853851E-01  1.00000000E+00
  1.00000000E+00  1.00000000E+00  0.00000000E+00  0.00000000E+00  0.00000000E+00
  0.00000000E+00  0.00000000E+00  0.00000000E+00  0.00000000E+00  4.02486927E-02
  2.37593957E-01  8.15853851E-01  1.00000000E+00  1.00000000E+00  1.00000000E+00
  0.00000000E+00  0.00000000E+00  0.00000000E+00  0.00000000E+00  0.00000000E+00
  0.00000000E+00  0.00000000E+00  4.02486927E-02  2.37593957E-01  8.15853851E-01
  1.00000000E+00  1.00000000E+00  1.00000000E+00  0.00000000E+00  0.00000000E+00
  0.00000000E+00  0.00000000E+00  0.00000000E+00  0.00000000E+00  0.00000000E+00
  4.02486927E-02  2.37593957E-01  8.15853851E-01  1.00000000E+00  1.00000000E+00
  1.00000000E+00  0.00000000E+00  0.00000000E+00  0.00000000E+00  0.00000000E+00
  0.00000000E+00  0.00000000E+00  0.00000000E+00  0.00000000E+00  0.00000000E+00
  0.00000000E+00  0.00000000E+00  0.00000000E+00  0.00000000E+00  0.00000000E+00
  0.00000000E+00  0.00000000E+00  0.00000000E+00  0.00000000E+00  0.00000000E+00
  0.00000000E+00  0.00000000E+00  0.00000000E+00  0.00000000E+00  0.00000000E+00
  0.00000000E+00  0.00000000E+00  0.00000000E+00  0.00000000E+00  0.00000000E+00
  0.00000000E+00  0.00000000E+00  0.00000000E+00  0.00000000E+00  0.00000000E+00
  0.00000000E+00  0.00000000E+00  0.00000000E+00  0.00000000E+00  0.00000000E+00
  0.00000000E+00  0.00000000E+00  0.00000000E+00  0.00000000E+00  0.00000000E+00
  0.00000000E+00  0.00000000E+00  0.00000000E+00  0.00000000E+00  0.00000000E+00
  0.00000000E+00  0.00000000E+00  0.00000000E+00  0.00000000E+00  0.00000000E+00
  0.00000000E+00  0.00000000E+00  0.00000000E+00  0.00000000E+00  0.00000000E+00
  0.00000000E+00  0.00000000E+00  0.00000000E+00  0.00000000E+00  1.00000000E+00
  0.00000000E+00  0.00000000E+00  0.00000000E+00  0.00000000E+00  0.00000000E+00
  0.00000000E+00  0.00000000E+00  0.00000000E+00  0.00000000E+00  0.00000000E+00
  0.00000000E+00
Coordinates of each shell                  R   N=         216
  8.14430576E-01  3.31182566E+00  8.90594823E-02  8.14430576E-01  3.31182566E+00
  8.90594823E-02  8.14430576E-01  3.31182566E+00  8.90594823E-02  8.14430576E-01
  3.31182566E+00  8.90594823E-02  8.14430576E-01  3.31182566E+00  8.90594823E-02
  8.14430576E-01  3.31182566E+00  8.90594823E-02 -7.69682619E-02  7.02159551E-01
 -6.60683939E-01 -7.69682619E-02  7.02159551E-01 -6.60683939E-01 -7.69682619E-02
  7.02159551E-01 -6.60683939E-01 -7.69682619E-02  7.02159551E-01 -6.60683939E-01
 -7.69682619E-02  7.02159551E-01 -6.60683939E-01 -7.69682619E-02  7.02159551E-01
 -6.60683939E-01 -2.28305377E+00 -1.81679222E-01  8.38935135E-01 -2.28305377E+00
 -1.81679222E-01  8.38935135E-01 -2.28305377E+00 -1.81679222E-01  8.38935135E-01
 -2.28305377E+00 -1.81679222E-01  8.38935135E-01 -2.28305377E+00 -1.81679222E-01
  8.38935135E-01 -2.28305377E+00 -1.81679222E-01  8.38935135E-01 -4.37079508E+00
 -1.00560179E+00 -2.86424870E-01 -4.37079508E+00 -1.00560179E+00 -2.86424870E-01
 -4.37079508E+00 -1.00560179E+00 -2.86424870E-01 -4.37079508E+00 -1.00560179E+00
 -2.86424870E-01 -4.37079508E+00 -1.00560179E+00 -2.86424870E-01 -4.37079508E+00
 -1.00560179E+00 -2.86424870E-01 -4.52267447E+00 -9.66164092E-01 -2.33652831E+00
 -4.52267447E+00 -9.66164092E-01 -2.33652831E+00 -4.52267447E+00 -9.66164092E-01
 -2.33652831E+00 -4.52267447E+00 -9.66164092E-01 -2.33652831E+00 -4.52267447E+00
 -9.66164092E-01 -2.33652831E+00  2.54069152E+00  3.84359802E+00 -9.04670878E-01
  2.54069152E+00  3.84359802E+00 -9.04670878E-01  2.54069152E+00  3.84359802E+00
 -9.04670878E-01  2.54069152E+00  3.84359802E+00 -9.04670878E-01  2.54069152E+00
  3.84359802E+00 -9.04670878E-01 -5.97709994E+00 -1.75173181E+00  7.54549269E-01
 -5.97709994E+00 -1.75173181E+00  7.54549269E-01 -5.97709994E+00 -1.75173181E+00
  7.54549269E-01 -5.97709994E+00 -1.75173181E+00  7.54549269E-01 -5.97709994E+00
 -1.75173181E+00  7.54549269E-01 -2.05527725E+00 -2.11815283E-01  2.88239834E+00
 -2.05527725E+00 -2.11815283E-01  2.88239834E+00 -2.05527725E+00 -2.11815283E-01
  2.88239834E+00 -2.05527725E+00 -2.11815283E-01  2.88239834E+00 -2.05527725E+00
 -2.11815283E-01  2.88239834E+00 -3.94230262E-01  4.84678010E-01 -2.68237514E+00
 -3.94230262E-01  4.84678010E-01 -2.68237514E+00 -3.94230262E-01  4.84678010E-01
 -2.68237514E+00 -3.94230262E-01  4.84678010E-01 -2.68237514E+00 -3.94230262E-01
  4.84678010E-01 -2.68237514E+00  1.19757312E+00  3.34296773E+00  2.11989851E+00
  1.19757312E+00  3.34296773E+00  2.11989851E+00  1.19757312E+00  3.34296773E+00
  2.11989851E+00  1.19757312E+00  3.34296773E+00  2.11989851E+00  1.19757312E+00
  3.34296773E+00  2.11989851E+00 -6.53652415E-01  4.71497454E+00 -3.18601445E-01
 -6.53652415E-01  4.71497454E+00 -3.18601445E-01 -6.53652415E-01  4.71497454E+00
 -3.18601445E-01 -6.53652415E-01  4.71497454E+00 -3.18601445E-01 -6.53652415E-01
  4.71497454E+00 -3.18601445E-01  2.66841111E+00 -1.55392543E+00  3.52949887E-02
  2.66841111E+00 -1.55392543E+00  3.52949887E-02  2.66841111E+00 -1.55392543E+00
  3.52949887E-02  2.66841111E+00 -1.55392543E+00  3.52949887E-02  2.66841111E+00
 -1.55392543E+00  3.52949887E-02  2.66841111E+00 -1.55392543E+00  3.52949887E-02
  2.66841111E+00 -1.55392543E+00  3.52949887E-02  2.66841111E+00 -1.55392543E+00
  3.52949887E-02  2.66841111E+00 -1.55392543E+00  3.52949887E-02  2.66841111E+00
 -1.55392543E+00  3.52949887E-02  2.66841111E+00 -1.55392543E+00  3.52949887E-02
  2.66841111E+00 -1.55392543E+00  3.52949887E-02  2.66841111E+00 -1.55392543E+00
  3.52949887E-02
Constraint Structure                       R   N=          36
  8.14430576E-01  3.31182566E+00  8.90594823E-02 -7.69682619E-02  7.02159551E-01
 -6.60683939E-01 -2.28305377E+00 -1.81679222E-01  8.38935135E-01 -4.37079508E+00
 -1.00560179E+00 -2.86424870E-01 -4.52267447E+00 -9.66164092E-01 -2.33652831E+00
  2.54069152E+00  3.84359802E+00 -9.04670878E-01 -5.97709994E+00 -1.75173181E+00
  7.54549269E-01 -2.05527725E+00 -2.11815283E-01  2.88239834E+00 -3.94230262E-01
  4.84678010E-01 -2.68237514E+00  1.19757312E+00  3.34296773E+00  2.11989851E+00
 -6.53652415E-01  4.71497454E+00 -3.18601445E-01  2.66841111E+00 -1.55392543E+00
  3.52949887E-02
Num ILSW                                   I              100
ILSW                                       I   N=         100
           0           0           0           0           2           0
           0           0           0           0         402          -1
           5           0           0           0           0           0
           0           0           0           0           0           0
           1           0           0           0           0           0
           0           0      100000           0          -1           0
           0           0           0           0           0           0
           0           0           0           1           0           0
           0           0           1           0           0           0
           0           0           4          41           0           0
           0           0           5           0           0           0
           0           0           0           0           0           0
           0           0           0           0           0           0
           0           0           0           0           0           0
           0           0           0           0           0           0
           0           0           0           0           0           0
           0           0           0           0
Num RLSW                                   I               41
RLSW                                       R   N=          41
  8.00000000E-01  7.20000000E-01  1.00000000E+00  8.10000000E-01  2.00000000E-01
  0.00000000E+00  0.00000000E+00  1.00000000E+00  0.00000000E+00  0.00000000E+00
  0.00000000E+00  0.00000000E+00  1.00000000E+00  0.00000000E+00  0.00000000E+00
  0.00000000E+00  0.00000000E+00  1.00000000E+00  0.00000000E+00  0.00000000E+00
  0.00000000E+00  0.00000000E+00  1.00000000E+00  0.00000000E+00  0.00000000E+00
  0.00000000E+00  0.00000000E+00  1.00000000E+00  0.00000000E+00  0.00000000E+00
  0.00000000E+00  0.00000000E+00  0.00000000E+00  0.00000000E+00  0.00000000E+00
  0.00000000E+00  0.00000000E+00  0.00000000E+00  1.00000000E+00  1.00000000E+00
  0.00000000E+00
MxBond                                     I                4
NBond                                      I   N=          12
           4           4           3           3           1           1
           1           1           1           1           1           1
IBond                                      I   N=          48
           2           6          10          11           1           3
           9          12           2           4           8           0
           3           5           7           0           4           0
           0           0           1           0           0           0
           4           0           0           0           3           0
           0           0           2           0           0           0
           1           0           0           0           1           0
           0           0           2           0           0           0
RBond                                      R   N=          48
  1.00000000E+00  1.00000000E+00  1.00000000E+00  1.00000000E+00  1.00000000E+00
  1.00000000E+00  1.00000000E+00  1.00000000E+00  1.00000000E+00  2.00000000E+00
  1.00000000E+00  0.00000000E+00  2.00000000E+00  1.00000000E+00  1.00000000E+00
  0.00000000E+00  1.00000000E+00  0.00000000E+00  0.00000000E+00  0.00000000E+00
  1.00000000E+00  0.00000000E+00  0.00000000E+00  0.00000000E+00  1.00000000E+00
  0.00000000E+00  0.00000000E+00  0.00000000E+00  1.00000000E+00  0.00000000E+00
  0.00000000E+00  0.00000000E+00  1.00000000E+00  0.00000000E+00  0.00000000E+00
  0.00000000E+00  1.00000000E+00  0.00000000E+00  0.00000000E+00  0.00000000E+00
  1.00000000E+00  0.00000000E+00  0.00000000E+00  0.00000000E+00  1.00000000E+00
  0.00000000E+00  0.00000000E+00  0.00000000E+00
Virial Ratio                               R      2.003105555000655E+00
SCF Energy                                 R     -6.168937834351247E+02
Total Energy                               R     -6.168937834351247E+02
RMS Density                                R      8.009050237474399E-12
Nuclear derivative order                   I                0
External E-field                           R   N=          35
  0.00000000E+00  0.00000000E+00  0.00000000E+00  0.00000000E+00  0.00000000E+00
  0.00000000E+00  0.00000000E+00  0.00000000E+00  0.00000000E+00  0.00000000E+00
  0.00000000E+00  0.00000000E+00  0.00000000E+00  0.00000000E+00  0.00000000E+00
  0.00000000E+00  0.00000000E+00  0.00000000E+00  0.00000000E+00  0.00000000E+00
  0.00000000E+00  0.00000000E+00  0.00000000E+00  0.00000000E+00  0.00000000E+00
  0.00000000E+00  0.00000000E+00  0.00000000E+00  0.00000000E+00  0.00000000E+00
  0.00000000E+00  0.00000000E+00  0.00000000E+00  0.00000000E+00  0.00000000E+00
IOpCl                                      I                0
IROHF                                      I                0
Alpha Orbital Energies                     R   N=         167
 -1.01530854E+02 -1.02507513E+01 -1.01952090E+01 -1.01861726E+01 -1.01816419E+01
 -9.44460940E+00 -7.20893526E+00 -7.19963802E+00 -7.19945191E+00 -8.61659758E-01
 -7.86372389E-01 -7.43674248E-01 -6.39989244E-01 -5.80829671E-01 -4.87006188E-01
 -4.76910510E-01 -4.44142828E-01 -4.16985283E-01 -4.02512726E-01 -3.75614732E-01
 -3.63499090E-01 -3.05088232E-01 -2.97345827E-01 -2.81356697E-01 -4.18413325E-02
 -7.36469732E-03  5.10971838E-03  6.75401081E-03  1.62681039E-02  2.75660052E-02
  3.80535762E-02  4.16011235E-02  6.38846918E-02  6.49915149E-02  7.17041424E-02
  8.24259390E-02  8.82804823E-02  9.79092729E-02  1.10750640E-01  1.15045179E-01
  1.18067146E-01  1.21529770E-01  1.28682219E-01  1.30837408E-01  1.35098645E-01
  1.40753736E-01  1.48723892E-01  1.56782960E-01  1.60774390E-01  1.64076944E-01
  1.71483401E-01  1.85807357E-01  1.92342926E-01  2.17894210E-01  2.20388556E-01
  2.24054728E-01  2.49274940E-01  2.64105467E-01  2.75481650E-01  2.92430220E-01
  3.40133122E-01  3.56046544E-01  3.89672814E-01  4.26326791E-01  4.32195691E-01
  4.44887054E-01  4.57156648E-01  4.78547661E-01  4.92124552E-01  4.99451678E-01
  5.22518032E-01  5.30555008E-01  5.65780882E-01  5.90312147E-01  5.98979025E-01
  6.25365571E-01  6.35421723E-01  6.47060633E-01  6.62075238E-01  6.65024141E-01
  6.92803962E-01  7.03839678E-01  7.32622048E-01  7.41514836E-01  7.91846456E-01
  8.12260970E-01  8.31839483E-01  8.62202365E-01  8.83236549E-01  8.96148339E-01
  9.42729115E-01  9.49484484E-01  1.01255453E+00  1.03166718E+00  1.06812115E+00
  1.08276776E+00  1.11934365E+00  1.16685327E+00  1.19385979E+00  1.29802542E+00
  1.37920185E+00  1.42501663E+00  1.45334357E+00  1.46880196E+00  1.50845922E+00
  1.54267971E+00  1.56338033E+00  1.58385911E+00  1.59984264E+00  1.62459196E+00
  1.66968912E+00  1.68793529E+00  1.69947108E+00  1.72454313E+00  1.75529541E+00
  1.78320410E+00  1.88071754E+00  1.88419496E+00  1.93544382E+00  1.98568465E+00
  2.02030998E+00  2.07216638E+00  2.11237971E+00  2.17433209E+00  2.18794925E+00
  2.20699561E+00  2.25057010E+00  2.28992843E+00  2.30478717E+00  2.35056349E+00
  2.37145640E+00  2.44896583E+00  2.46473897E+00  2.49306457E+00  2.52279898E+00
  2.56546337E+00  2.56931261E+00  2.59557648E+00  2.60704481E+00  2.64939324E+00
  2.73104372E+00  2.73451819E+00  2.74681720E+00  2.78499938E+00  2.85247552E+00
  2.85929355E+00  2.93258631E+00  3.08807934E+00  3.10597419E+00  3.15997810E+00
  3.39459475E+00  3.50431009E+00  3.71492977E+00  3.79236454E+00  3.80193531E+00
  3.94940871E+00  4.12334006E+00  4.28751088E+00  9.75381640E+00  2.37179707E+01
  2.38026726E+01  2.39465726E+01  2.42591724E+01  2.59272260E+01  2.59675630E+01
  2.64264114E+01  2.15743693E+02
Alpha MO coefficients                      R   N=       27889
  2.52215619E-07 -5.79475910E-07 -2.49331672E-06 -5.58430021E-07 -6.47313450E-07
 -1.78503571E-06  1.92336605E-05  8.71151121E-06  7.38461334E-06  2.90161123E-05
  4.57440260E-05  2.72224971E-05  2.88117134E-05 -1.81627736E-03 -1.77586326E-04
  5.56195348E-04  4.61295403E-05  7.40566893E-06 -2.81419560E-06 -4.33919078E-06
  1.09848342E-05  1.90112181E-06  1.33969514E-06 -2.90788722E-06  7.86742145E-06
 -7.57991285E-06  4.89853843E-06 -1.89767142E-05 -5.24051541E-06  1.06195523E-05
 -1.89283894E-05  1.47427329E-04  1.03094229E-04 -1.19887481E-04  1.08107461E-05
  4.39983470E-03 -4.11256410E-04  4.07652705E-04  1.02268111E-03  4.68678220E-06
 -2.80648074E-07  1.58150519E-06 -6.60210964E-07 -1.54286816E-06 -3.80127028E-07
  1.15116236E-06  3.46616672E-06 -2.76387820E-06 -3.55155640E-06 -5.96181213E-06
 -1.98962038E-05  1.03610197E-05  2.27674069E-05  1.38162319E-05 -1.38104862E-05
 -2.24422227E-05 -5.07270463E-05 -1.56659173E-03 -1.24924944E-03 -4.22085492E-04
  9.64737891E-06  7.41236008E-06  5.00778511E-06 -6.60564941E-06  1.67878168E-06
 -3.92300382E-06  3.96159367E-07 -1.15389005E-06 -1.72311147E-06  5.00966682E-07
  5.64507542E-07  1.15702841E-05  9.62960576E-06 -1.82094830E-06  2.12611005E-06
 -7.57326508E-05 -9.11307750E-05 -2.76521276E-05  4.82239300E-05 -1.51673495E-03
 -2.99154866E-04 -1.91790305E-04 -1.46645032E-04 -5.53070928E-06 -6.95797449E-07
 -2.28125738E-06 -2.57414700E-06 -1.76983102E-06 -2.93426167E-06  3.42319652E-05
  5.40276701E-05  2.64666739E-05  7.01517646E-06 -9.99975512E-08  6.46201952E-06
  1.30459084E-05 -8.88379252E-05  7.24794518E-05  2.34508728E-04  7.78637778E-06
  1.38592748E-05 -1.12379710E-05  2.02965103E-06 -1.67951071E-05 -5.26796878E-05
 -1.25844245E-04 -1.87560636E-08 -7.45545226E-07  9.56795922E-07  5.72635232E-06
 -3.64481083E-05  4.37958568E-05  1.02592386E-04 -1.04369133E-05  1.59942444E-06
  1.42107565E-05  1.72561224E-07 -5.50360275E-05 -1.07661744E-04  1.88424874E-04
 -7.79891895E-06  3.73466173E-06 -1.32963072E-05  1.09083475E-05 -7.01764416E-05
 -4.67124363E-05  8.53375854E-05 -5.06692336E-06  1.32606903E-05  1.63708190E-05
 -7.92780399E-06  4.36928229E-05 -1.57746861E-04 -3.33949222E-04  1.32925229E-06
 -5.20180887E-06 -6.77520081E-07  4.11609955E-01  6.54076662E-01  1.50014371E-02