 Entering Gaussian System, Link 0=g09
 Input=input.dat
 Output=output.dat
 Initial command:
 /cerebro/home/software/apps/g09/l1.exe /scratch/crawdad/Gau-31862.inp -scrdir=/scratch/crawdad/
 Entering Link 1 = /cerebro/home/software/apps/g09/l1.exe PID=     31863.
  
 Copyright (c) 1988,1990,1992,1993,1995,1998,2003,2009, Gaussian, Inc.
                  All Rights Reserved.
  
 This is part of the Gaussian(R) 09 program.  It is based on
 the Gaussian(R) 03 system (copyright 2003, Gaussian, Inc.),
 the Gaussian(R) 98 system (copyright 1998, Gaussian, Inc.),
 the Gaussian(R) 94 system (copyright 1995, Gaussian, Inc.),
 the Gaussian 92(TM) system (copyright 1992, Gaussian, Inc.),
 the Gaussian 90(TM) system (copyright 1990, Gaussian, Inc.),
 the Gaussian 88(TM) system (copyright 1988, Gaussian, Inc.),
 the Gaussian 86(TM) system (copyright 1986, Carnegie Mellon
 University), and the Gaussian 82(TM) system (copyright 1983,
 Carnegie Mellon University). Gaussian is a federally registered
 trademark of Gaussian, Inc.
  
 This software contains proprietary and confidential information,
 including trade secrets, belonging to Gaussian, Inc.
  
 This software is provided under written license and may be
 used, copied, transmitted, or stored only in accord with that
 written license.
  
 The following legend is applicable only to US Government
 contracts under FAR:
  
                    RESTRICTED RIGHTS LEGEND
  
 Use, reproduction and disclosure by the US Government is
 subject to restrictions as set forth in subparagraphs (a)
 and (c) of the Commercial Computer Software - Restricted
 Rights clause in FAR 52.227-19.
  
 Gaussian, Inc.
 340 Quinnipiac St., Bldg. 40, Wallingford CT 06492
  
  
 ---------------------------------------------------------------
 Warning -- This program may not be used in any manner that
 competes with the business of Gaussian, Inc. or will provide
 assistance to any competitor of Gaussian, Inc.  The licensee
 of this program is prohibited from giving any competitor of
 Gaussian, Inc. access to this program.  By using this program,
 the user acknowledges that Gaussian, Inc. is engaged in the
 business of creating and licensing software in the field of
 computational chemistry and represents and warrants to the
 licensee that it is not a competitor of Gaussian, Inc. and that
 it will not use this program in any manner prohibited above.
 ---------------------------------------------------------------
  

 Cite this work as:
 Gaussian 09, Revision A.02,
 M. J. Frisch, G. W. Trucks, H. B. Schlegel, G. E. Scuseria, 
 M. A. Robb, J. R. Cheeseman, G. Scalmani, V. Barone, B. Mennucci, 
 G. A. Petersson, H. Nakatsuji, M. Caricato, X. Li, H. P. Hratchian, 
 A. F. Izmaylov, J. Bloino, G. Zheng, J. L. Sonnenberg, M. Hada, 
 M. Ehara, K. Toyota, R. Fukuda, J. Hasegawa, M. Ishida, T. Nakajima, 
 Y. Honda, O. Kitao, H. Nakai, T. Vreven, J. A. Montgomery, Jr., 
 J. E. Peralta, F. Ogliaro, M. Bearpark, J. J. Heyd, E. Brothers, 
 K. N. Kudin, V. N. Staroverov, R. Kobayashi, J. Normand, 
 K. Raghavachari, A. Rendell, J. C. Burant, S. S. Iyengar, J. Tomasi, 
 M. Cossi, N. Rega, J. M. Millam, M. Klene, J. E. Knox, J. B. Cross, 
 V. Bakken, C. Adamo, J. Jaramillo, R. Gomperts, R. E. Stratmann, 
 O. Yazyev, A. J. Austin, R. Cammi, C. Pomelli, J. W. Ochterski, 
 R. L. Martin, K. Morokuma, V. G. Zakrzewski, G. A. Voth, 
 P. Salvador, J. J. Dannenberg, S. Dapprich, A. D. Daniels, 
 O. Farkas, J. B. Foresman, J. V. Ortiz, J. Cioslowski, 
 and D. J. Fox, Gaussian, Inc., Wallingford CT, 2009.
 
 ******************************************
 Gaussian 09:  EM64L-G09RevA.02 11-Jun-2009
                10-Jul-2013 
 ******************************************
 %chk=vibave
 %mem=1000mb
 %nproc=1
 Will use up to    1 processors via shared memory.
 ----------------------------------------------------------------------
 #P B3LYP/6-311++G** scf(conver=11) int=ultrafine polar=optrot cphf(rdf
 req,conver=11)
 ----------------------------------------------------------------------
 1/38=1,83=21/1;
 2/12=2,17=6,18=5,40=1/2;
 3/5=4,6=6,7=1111,11=2,16=1,25=1,30=1,36=2,74=-5,75=-5/1,2,3;
 4//1;
 5/5=2,6=11,38=5,96=-2,98=1/2;
 8/6=4,10=90,11=11/1;
 10/6=1,7=11,13=10,46=8,60=-2,72=3/2;
 6/7=2,8=2,9=2,10=2,28=1/1;
 99/5=1,9=1/99;
 Leave Link    1 at Wed Jul 10 17:19:23 2013, MaxMem=  131072000 cpu:       0.1
 (Enter /cerebro/home/software/apps/g09/l101.exe)
 -----------------------------
 (R)-3-chloro-1-butene tau=120
 -----------------------------
 Symbolic Z-matrix:
 Charge =  0 Multiplicity = 1
 C                     0.47753   1.76345   0.04222 
 C                     0.04496   0.33115  -0.29665 
 C                    -1.20085  -0.11916   0.41308 
 C                    -2.3446   -0.49998  -0.15614 
 H                    -2.45913  -0.62262  -1.23116 
 H                     1.3669    2.0356   -0.53024 
 H                    -3.21821  -0.70472   0.45965 
 H                    -1.16342  -0.03682   1.49943 
 H                    -0.1113    0.26561  -1.374 
 H                     0.69135   1.89867   1.10644 
 H                    -0.335     2.44103  -0.24127 
 Cl                    1.37347  -0.82855   0.01748 
 
 NAtoms=     12 NQM=     12 NQMF=      0 NMic=      0 NMicF=      0 NTot=     12.
                    Isotopes and Nuclear Properties:
 (Nuclear quadrupole moments (NQMom) in fm**2, nuclear magnetic moments (NMagM)
  in nuclear magnetons)

  Atom         1           2           3           4           5           6           7           8           9          10
 IAtWgt=          12          12          12          12           1           1           1           1           1           1
 AtmWgt=  12.0000000  12.0000000  12.0000000  12.0000000   1.0078250   1.0078250   1.0078250   1.0078250   1.0078250   1.0078250
 NucSpn=           0           0           0           0           1           1           1           1           1           1
 AtZEff=   0.0000000   0.0000000   0.0000000   0.0000000   0.0000000   0.0000000   0.0000000   0.0000000   0.0000000   0.0000000
 NQMom=    0.0000000   0.0000000   0.0000000   0.0000000   0.0000000   0.0000000   0.0000000   0.0000000   0.0000000   0.0000000
 NMagM=    0.0000000   0.0000000   0.0000000   0.0000000   2.7928460   2.7928460   2.7928460   2.7928460   2.7928460   2.7928460

  Atom        11          12
 IAtWgt=           1          35
 AtmWgt=   1.0078250  34.9688527
 NucSpn=           1           3
 AtZEff=   0.0000000   0.0000000
 NQMom=    0.0000000  -8.1650000
 NMagM=    2.7928460   0.8218740
 Using perturbation frequencies:    0.071980    0.077357    0.104503    0.128347
 Leave Link  101 at Wed Jul 10 17:19:23 2013, MaxMem=  131072000 cpu:       0.2
 (Enter /cerebro/home/software/apps/g09/l202.exe)
                          Input orientation:                          
 ---------------------------------------------------------------------
 Center     Atomic      Atomic             Coordinates (Angstroms)
 Number     Number       Type             X           Y           Z
 ---------------------------------------------------------------------
      1          6           0        0.477534    1.763447    0.042219
      2          6           0        0.044963    0.331152   -0.296647
      3          6           0       -1.200852   -0.119162    0.413084
      4          6           0       -2.344603   -0.499975   -0.156140
      5          1           0       -2.459131   -0.622625   -1.231155
      6          1           0        1.366904    2.035601   -0.530238
      7          1           0       -3.218209   -0.704721    0.459649
      8          1           0       -1.163418   -0.036815    1.499430
      9          1           0       -0.111297    0.265609   -1.374000
     10          1           0        0.691346    1.898669    1.106436
     11          1           0       -0.334999    2.441034   -0.241265
     12         17           0        1.373474   -0.828546    0.017476
 ---------------------------------------------------------------------
                    Distance matrix (angstroms):
                    1          2          3          4          5
     1  C    0.000000
     2  C    1.534085   0.000000
     3  C    2.549262   1.502849   0.000000
     4  C    3.623104   2.533878   1.333117   0.000000
     5  H    3.992345   2.837866   2.130789   1.088033   0.000000
     6  H    1.092133   2.169618   3.482274   4.510475   4.711263
     7  H    4.463700   3.506181   2.101138   1.088258   1.855198
     8  H    2.838509   2.195787   1.090106   2.085816   3.078659
     9  H    2.143809   1.090597   2.128109   2.656494   2.514297
    10  H    1.093874   2.200810   2.851805   4.069961   4.663343
    11  H    1.095306   2.144538   2.780733   3.563045   3.857179
    12  Cl   2.742581   1.791233   2.699423   3.736603   4.036131
                    6          7          8          9         10
     6  H    0.000000
     7  H    5.432541   0.000000
     8  H    3.849285   2.397793   0.000000
     9  H    2.455582   3.735869   3.074902   0.000000
    10  H    1.775904   4.741371   2.709372   3.076311   0.000000
    11  H    1.773233   4.324345   3.139433   2.462845   1.778720
    12  Cl   2.916054   4.614587   3.042836   2.310396   3.014770
                   11         12
    11  H    0.000000
    12  Cl   3.698105   0.000000
 Stoichiometry    C4H7Cl
 Framework group  C1[X(C4H7Cl)]
 Deg. of freedom    30
 Full point group                 C1      NOp   1
 Largest Abelian subgroup         C1      NOp   1
 Largest concise Abelian subgroup C1      NOp   1
                         Standard orientation:                         
 ---------------------------------------------------------------------
 Center     Atomic      Atomic             Coordinates (Angstroms)
 Number     Number       Type             X           Y           Z
 ---------------------------------------------------------------------
      1          6           0        0.506193    1.754816    0.032456
      2          6           0        0.051515    0.327554   -0.298619
      3          6           0       -1.203460   -0.098051    0.410219
      4          6           0       -2.351566   -0.463981   -0.160001
      5          1           0       -2.464953   -0.591627   -1.234555
      6          1           0        1.401497    2.008918   -0.539049
      7          1           0       -3.230143   -0.650663    0.454455
      8          1           0       -1.167841   -0.009384    1.496129
      9          1           0       -0.102668    0.257665   -1.375998
     10          1           0        0.719085    1.893362    1.096431
     11          1           0       -0.294461    2.443605   -0.257748
     12         17           0        1.360199   -0.851406    0.026824
 ---------------------------------------------------------------------
 Rotational constants (GHZ):      5.5724337      2.7580102      2.0045697
 Leave Link  202 at Wed Jul 10 17:19:23 2013, MaxMem=  131072000 cpu:       0.0
 (Enter /cerebro/home/software/apps/g09/l301.exe)
 Standard basis: 6-311++G(d,p) (5D, 7F)
 Ernie: Thresh=  0.10000D-02 Tol=  0.10000D-05 Strict=F.
 There are   167 symmetry adapted basis functions of A   symmetry.
 Integral buffers will be    131072 words long.
 Raffenetti 2 integral format.
 Two-electron integral symmetry is turned on.
   167 basis functions,   260 primitive gaussians,   172 cartesian basis functions
    24 alpha electrons       24 beta electrons
       nuclear repulsion energy       212.3966809117 Hartrees.
 IExCor=  402 DFT=T Ex+Corr=B3LYP ExCW=0 ScaHFX=  0.200000
 ScaDFX=  0.800000  0.720000  1.000000  0.810000 ScalE2=  1.000000  1.000000
 IRadAn=      5 IRanWt=     -1 IRanGd=            0 ICorTp=0
 NAtoms=   12 NActive=   12 NUniq=   12 SFac= 7.50D-01 NAtFMM=   80 NAOKFM=F Big=F
 Leave Link  301 at Wed Jul 10 17:19:24 2013, MaxMem=  131072000 cpu:       0.1
 (Enter /cerebro/home/software/apps/g09/l302.exe)
 NPDir=0 NMtPBC=     1 NCelOv=     1 NCel=       1 NClECP=     1 NCelD=      1
         NCelK=      1 NCelE2=     1 NClLst=     1 CellRange=     0.0.
 One-electron integrals computed using PRISM.
 NBasis=   167 RedAO= T  NBF=   167
 NBsUse=   167 1.00D-06 NBFU=   167
 Precomputing XC quadrature grid using
 IXCGrd= 2 IRadAn=           5 IRanWt=          -1 IRanGd=           0 AccXCQ= 1.00D-10.
 NRdTot=    1019 NPtTot=      274288 NUsed=      281590 NTot=      281622
 NSgBfM=   172   172   172   172   172 NAtAll=    12    12.
 Leave Link  302 at Wed Jul 10 17:19:24 2013, MaxMem=  131072000 cpu:       0.7
 (Enter /cerebro/home/software/apps/g09/l303.exe)
 DipDrv:  MaxL=2.
 Leave Link  303 at Wed Jul 10 17:19:24 2013, MaxMem=  131072000 cpu:       0.1
 (Enter /cerebro/home/software/apps/g09/l401.exe)
 Harris functional with IExCor=  402 diagonalized for initial guess.
 ExpMin= 3.60D-02 ExpMax= 1.06D+05 ExpMxC= 3.62D+03 IAcc=3 IRadAn=         5 AccDes= 0.00D+00
 HarFok:  IExCor=  402 AccDes= 0.00D+00 IRadAn=         5 IDoV= 1
 ScaDFX=  1.000000  1.000000  1.000000  1.000000
 FoFCou: FMM=F IPFlag=           0 FMFlag=      100000 FMFlg1=           0
         NFxFlg=           0 DoJE=T BraDBF=F KetDBF=T FulRan=T
         Omega=  0.000000  0.000000  1.000000  0.000000  0.000000 ICntrl=     500 IOpCl=  0
         NMat0=    1 NMatS0=    1 NMatT0=    0 NMatD0=    1 NMtDS0=    0 NMtDT0=    0
         I1Cent=           4 NGrid=           0.
 Petite list used in FoFCou.
 Harris En= -616.910519816585    
 Initial guess orbital symmetries:
       Occupied  (A) (A) (A) (A) (A) (A) (A) (A) (A) (A) (A) (A)
                 (A) (A) (A) (A) (A) (A) (A) (A) (A) (A) (A) (A)
       Virtual   (A) (A) (A) (A) (A) (A) (A) (A) (A) (A) (A) (A)
                 (A) (A) (A) (A) (A) (A) (A) (A) (A) (A) (A) (A)
                 (A) (A) (A) (A) (A) (A) (A) (A) (A) (A) (A) (A)
                 (A) (A) (A) (A) (A) (A) (A) (A) (A) (A) (A) (A)
                 (A) (A) (A) (A) (A) (A) (A) (A) (A) (A) (A) (A)
                 (A) (A) (A) (A) (A) (A) (A) (A) (A) (A) (A) (A)
                 (A) (A) (A) (A) (A) (A) (A) (A) (A) (A) (A) (A)
                 (A) (A) (A) (A) (A) (A) (A) (A) (A) (A) (A) (A)
                 (A) (A) (A) (A) (A) (A) (A) (A) (A) (A) (A) (A)
                 (A) (A) (A) (A) (A) (A) (A) (A) (A) (A) (A) (A)
                 (A) (A) (A) (A) (A) (A) (A) (A) (A) (A) (A) (A)
                 (A) (A) (A) (A) (A) (A) (A) (A) (A) (A) (A)
 The electronic state of the initial guess is 1-A.
 Leave Link  401 at Wed Jul 10 17:19:32 2013, MaxMem=  131072000 cpu:       7.5
 (Enter /cerebro/home/software/apps/g09/l502.exe)
 Closed shell SCF:
 Requested convergence on RMS density matrix=1.00D-11 within 128 cycles.
 Requested convergence on MAX density matrix=1.00D-09.
 Requested convergence on             energy=1.00D-09.
 No special actions if energy rises.
 Using DIIS extrapolation, IDIIS=  1040.
 Integral symmetry usage will be decided dynamically.
       281469 words used for storage of precomputed grid.
 Keep R1 ints in memory in canonical form, NReq=113664361.
 IEnd=      390694 IEndB=      390694 NGot=   131072000 MDV=    20042794
 LenX=    20042794 LenY=    20012769
 Symmetry not used in FoFDir.
 MinBra= 0 MaxBra= 2 Meth= 1.
 IRaf=       0 NMat=   1 IRICut=       1 DoRegI=T DoRafI=F ISym2E= 0 JSym2E=0.

 Cycle   1  Pass 1  IDiag  1:
 E= -616.720814520424    
 DIIS: error= 2.50D-02 at cycle   1 NSaved=   1.
 NSaved= 1 IEnMin= 1 EnMin= -616.720814520424     IErMin= 1 ErrMin= 2.50D-02
 ErrMax= 2.50D-02 EMaxC= 1.00D-01 BMatC= 2.05D-01 BMatP= 2.05D-01
 IDIUse=3 WtCom= 7.50D-01 WtEn= 2.50D-01
 Coeff-Com:  0.100D+01
 Coeff-En:   0.100D+01
 Coeff:      0.100D+01
 Gap=     0.409 Goal=   None    Shift=    0.000
 GapD=    0.409 DampG=2.000 DampE=0.500 DampFc=1.0000 IDamp=-1.
 RMSDP=6.61D-03 MaxDP=1.33D-01              OVMax= 2.18D-01

 Cycle   2  Pass 1  IDiag  1:
 E= -616.643749604463     Delta-E=        0.077064915961 Rises=F Damp=F
 DIIS: error= 3.08D-02 at cycle   2 NSaved=   2.
 NSaved= 2 IEnMin= 1 EnMin= -616.720814520424     IErMin= 1 ErrMin= 2.50D-02
 ErrMax= 3.08D-02 EMaxC= 1.00D-01 BMatC= 2.30D-01 BMatP= 2.05D-01
 IDIUse=2 WtCom= 0.00D+00 WtEn= 1.00D+00
 Coeff-En:   0.587D+00 0.413D+00
 Coeff:      0.587D+00 0.413D+00
 Gap=     0.269 Goal=   None    Shift=    0.000
 RMSDP=5.83D-03 MaxDP=1.74D-01 DE= 7.71D-02 OVMax= 1.13D-01

 Cycle   3  Pass 1  IDiag  1:
 E= -616.891552236703     Delta-E=       -0.247802632241 Rises=F Damp=F
 DIIS: error= 2.77D-03 at cycle   3 NSaved=   3.
 NSaved= 3 IEnMin= 3 EnMin= -616.891552236703     IErMin= 3 ErrMin= 2.77D-03
 ErrMax= 2.77D-03 EMaxC= 1.00D-01 BMatC= 2.14D-03 BMatP= 2.05D-01
 IDIUse=3 WtCom= 9.72D-01 WtEn= 2.77D-02
 Coeff-Com:  0.999D-01 0.451D-01 0.855D+00
 Coeff-En:   0.000D+00 0.000D+00 0.100D+01
 Coeff:      0.971D-01 0.439D-01 0.859D+00
 Gap=     0.255 Goal=   None    Shift=    0.000
 RMSDP=1.11D-03 MaxDP=2.89D-02 DE=-2.48D-01 OVMax= 2.10D-02

 Cycle   4  Pass 1  IDiag  1:
 E= -616.891835272496     Delta-E=       -0.000283035793 Rises=F Damp=F
 DIIS: error= 3.09D-03 at cycle   4 NSaved=   4.
 NSaved= 4 IEnMin= 4 EnMin= -616.891835272496     IErMin= 3 ErrMin= 2.77D-03
 ErrMax= 3.09D-03 EMaxC= 1.00D-01 BMatC= 1.79D-03 BMatP= 2.14D-03
 IDIUse=3 WtCom= 9.69D-01 WtEn= 3.09D-02
 Coeff-Com:  0.260D-01-0.612D-02 0.524D+00 0.456D+00
 Coeff-En:   0.000D+00 0.000D+00 0.463D+00 0.537D+00
 Coeff:      0.252D-01-0.593D-02 0.522D+00 0.458D+00
 Gap=     0.253 Goal=   None    Shift=    0.000
 RMSDP=4.81D-04 MaxDP=1.44D-02 DE=-2.83D-04 OVMax= 1.72D-02

 Cycle   5  Pass 1  IDiag  1:
 E= -616.893501801780     Delta-E=       -0.001666529283 Rises=F Damp=F
 DIIS: error= 6.24D-04 at cycle   5 NSaved=   5.
 NSaved= 5 IEnMin= 5 EnMin= -616.893501801780     IErMin= 5 ErrMin= 6.24D-04
 ErrMax= 6.24D-04 EMaxC= 1.00D-01 BMatC= 7.98D-05 BMatP= 1.79D-03
 IDIUse=3 WtCom= 9.94D-01 WtEn= 6.24D-03
 Coeff-Com:  0.748D-02-0.707D-02 0.218D+00 0.240D+00 0.542D+00
 Coeff-En:   0.000D+00 0.000D+00 0.000D+00 0.000D+00 0.100D+01
 Coeff:      0.743D-02-0.702D-02 0.216D+00 0.238D+00 0.545D+00
 Gap=     0.253 Goal=   None    Shift=    0.000
 RMSDP=1.00D-04 MaxDP=3.42D-03 DE=-1.67D-03 OVMax= 6.23D-03

 Cycle   6  Pass 1  IDiag  1:
 E= -616.893575921617     Delta-E=       -0.000074119838 Rises=F Damp=F
 DIIS: error= 2.32D-04 at cycle   6 NSaved=   6.
 NSaved= 6 IEnMin= 6 EnMin= -616.893575921617     IErMin= 6 ErrMin= 2.32D-04
 ErrMax= 2.32D-04 EMaxC= 1.00D-01 BMatC= 1.11D-05 BMatP= 7.98D-05
 IDIUse=3 WtCom= 9.98D-01 WtEn= 2.32D-03
 Coeff-Com:  0.101D-02-0.420D-02 0.672D-01 0.834D-01 0.311D+00 0.541D+00
 Coeff-En:   0.000D+00 0.000D+00 0.000D+00 0.000D+00 0.861D-01 0.914D+00
 Coeff:      0.100D-02-0.419D-02 0.671D-01 0.832D-01 0.311D+00 0.542D+00
 Gap=     0.253 Goal=   None    Shift=    0.000
 RMSDP=3.32D-05 MaxDP=9.43D-04 DE=-7.41D-05 OVMax= 1.63D-03

 Cycle   7  Pass 1  IDiag  1:
 E= -616.893586553456     Delta-E=       -0.000010631839 Rises=F Damp=F
 DIIS: error= 2.50D-05 at cycle   7 NSaved=   7.
 NSaved= 7 IEnMin= 7 EnMin= -616.893586553456     IErMin= 7 ErrMin= 2.50D-05
 ErrMax= 2.50D-05 EMaxC= 1.00D-01 BMatC= 2.61D-07 BMatP= 1.11D-05
 IDIUse=1 WtCom= 1.00D+00 WtEn= 0.00D+00
 Coeff-Com: -0.330D-04-0.149D-02 0.152D-01 0.201D-01 0.926D-01 0.217D+00
 Coeff-Com:  0.656D+00
 Coeff:     -0.330D-04-0.149D-02 0.152D-01 0.201D-01 0.926D-01 0.217D+00
 Coeff:      0.656D+00
 Gap=     0.253 Goal=   None    Shift=    0.000
 RMSDP=8.07D-06 MaxDP=3.46D-04 DE=-1.06D-05 OVMax= 1.13D-04

 Cycle   8  Pass 1  IDiag  1:
 E= -616.893586789809     Delta-E=       -0.000000236353 Rises=F Damp=F
 DIIS: error= 5.69D-06 at cycle   8 NSaved=   8.
 NSaved= 8 IEnMin= 8 EnMin= -616.893586789809     IErMin= 8 ErrMin= 5.69D-06
 ErrMax= 5.69D-06 EMaxC= 1.00D-01 BMatC= 1.30D-08 BMatP= 2.61D-07
 IDIUse=1 WtCom= 1.00D+00 WtEn= 0.00D+00
 Coeff-Com: -0.323D-04-0.331D-03 0.192D-02 0.303D-02 0.180D-01 0.549D-01
 Coeff-Com:  0.253D+00 0.669D+00
 Coeff:     -0.323D-04-0.331D-03 0.192D-02 0.303D-02 0.180D-01 0.549D-01
 Coeff:      0.253D+00 0.669D+00
 Gap=     0.253 Goal=   None    Shift=    0.000
 RMSDP=1.54D-06 MaxDP=3.51D-05 DE=-2.36D-07 OVMax= 3.55D-05

 Cycle   9  Pass 1  IDiag  1:
 E= -616.893586801691     Delta-E=       -0.000000011882 Rises=F Damp=F
 DIIS: error= 1.62D-06 at cycle   9 NSaved=   9.
 NSaved= 9 IEnMin= 9 EnMin= -616.893586801691     IErMin= 9 ErrMin= 1.62D-06
 ErrMax= 1.62D-06 EMaxC= 1.00D-01 BMatC= 6.65D-10 BMatP= 1.30D-08
 IDIUse=1 WtCom= 1.00D+00 WtEn= 0.00D+00
 Coeff-Com: -0.124D-04-0.287D-04-0.119D-03-0.657D-06 0.246D-03 0.394D-02
 Coeff-Com:  0.371D-01 0.235D+00 0.724D+00
 Coeff:     -0.124D-04-0.287D-04-0.119D-03-0.657D-06 0.246D-03 0.394D-02
 Coeff:      0.371D-01 0.235D+00 0.724D+00
 Gap=     0.253 Goal=   None    Shift=    0.000
 RMSDP=5.85D-07 MaxDP=2.26D-05 DE=-1.19D-08 OVMax= 6.63D-06

 Cycle  10  Pass 1  IDiag  1:
 E= -616.893586802328     Delta-E=       -0.000000000638 Rises=F Damp=F
 DIIS: error= 3.32D-07 at cycle  10 NSaved=  10.
 NSaved=10 IEnMin=10 EnMin= -616.893586802328     IErMin=10 ErrMin= 3.32D-07
 ErrMax= 3.32D-07 EMaxC= 1.00D-01 BMatC= 2.23D-11 BMatP= 6.65D-10
 IDIUse=1 WtCom= 1.00D+00 WtEn= 0.00D+00
 Coeff-Com: -0.368D-05-0.568D-06-0.938D-04-0.744D-04-0.438D-03-0.647D-04
 Coeff-Com:  0.618D-02 0.675D-01 0.261D+00 0.666D+00
 Coeff:     -0.368D-05-0.568D-06-0.938D-04-0.744D-04-0.438D-03-0.647D-04
 Coeff:      0.618D-02 0.675D-01 0.261D+00 0.666D+00
 Gap=     0.253 Goal=   None    Shift=    0.000
 RMSDP=1.03D-07 MaxDP=3.55D-06 DE=-6.38D-10 OVMax= 1.39D-06

 Cycle  11  Pass 1  IDiag  1:
 E= -616.893586802348     Delta-E=       -0.000000000019 Rises=F Damp=F
 DIIS: error= 1.04D-07 at cycle  11 NSaved=  11.
 NSaved=11 IEnMin=11 EnMin= -616.893586802348     IErMin=11 ErrMin= 1.04D-07
 ErrMax= 1.04D-07 EMaxC= 1.00D-01 BMatC= 3.60D-12 BMatP= 2.23D-11
 IDIUse=1 WtCom= 1.00D+00 WtEn= 0.00D+00
 Coeff-Com: -0.819D-06 0.170D-05-0.330D-04-0.318D-04-0.222D-03-0.265D-03
 Coeff-Com:  0.137D-03 0.130D-01 0.655D-01 0.325D+00 0.597D+00
 Coeff:     -0.819D-06 0.170D-05-0.330D-04-0.318D-04-0.222D-03-0.265D-03
 Coeff:      0.137D-03 0.130D-01 0.655D-01 0.325D+00 0.597D+00
 Gap=     0.253 Goal=   None    Shift=    0.000
 RMSDP=2.82D-08 MaxDP=8.92D-07 DE=-1.92D-11 OVMax= 4.24D-07

 Cycle  12  Pass 1  IDiag  1:
 E= -616.893586802352     Delta-E=       -0.000000000005 Rises=F Damp=F
 DIIS: error= 1.45D-08 at cycle  12 NSaved=  12.
 NSaved=12 IEnMin=12 EnMin= -616.893586802352     IErMin=12 ErrMin= 1.45D-08
 ErrMax= 1.45D-08 EMaxC= 1.00D-01 BMatC= 6.67D-14 BMatP= 3.60D-12
 IDIUse=1 WtCom= 1.00D+00 WtEn= 0.00D+00
 Coeff-Com: -0.324D-07 0.217D-06-0.112D-05-0.215D-05-0.263D-04-0.245D-04
 Coeff-Com: -0.300D-03-0.140D-02-0.801D-03 0.314D-01 0.129D+00 0.842D+00
 Coeff:     -0.324D-07 0.217D-06-0.112D-05-0.215D-05-0.263D-04-0.245D-04
 Coeff:     -0.300D-03-0.140D-02-0.801D-03 0.314D-01 0.129D+00 0.842D+00
 Gap=     0.253 Goal=   None    Shift=    0.000
 RMSDP=7.90D-09 MaxDP=3.35D-07 DE=-4.66D-12 OVMax= 7.84D-08

 Cycle  13  Pass 1  IDiag  1:
 E= -616.893586802351     Delta-E=        0.000000000001 Rises=F Damp=F
 DIIS: error= 2.60D-09 at cycle  13 NSaved=  13.
 NSaved=13 IEnMin=12 EnMin= -616.893586802352     IErMin=13 ErrMin= 2.60D-09
 ErrMax= 2.60D-09 EMaxC= 1.00D-01 BMatC= 2.00D-15 BMatP= 6.67D-14
 IDIUse=1 WtCom= 1.00D+00 WtEn= 0.00D+00
 Coeff-Com:  0.115D-07 0.326D-07 0.652D-07-0.205D-06-0.472D-05-0.321D-05
 Coeff-Com: -0.982D-04-0.602D-03-0.162D-02 0.967D-03 0.217D-01 0.213D+00
 Coeff-Com:  0.767D+00
 Coeff:      0.115D-07 0.326D-07 0.652D-07-0.205D-06-0.472D-05-0.321D-05
 Coeff:     -0.982D-04-0.602D-03-0.162D-02 0.967D-03 0.217D-01 0.213D+00
 Coeff:      0.767D+00
 Gap=     0.253 Goal=   None    Shift=    0.000
 RMSDP=1.93D-09 MaxDP=7.74D-08 DE= 1.48D-12 OVMax= 1.11D-08

 Cycle  14  Pass 1  IDiag  1:
 E= -616.893586802353     Delta-E=       -0.000000000003 Rises=F Damp=F
 DIIS: error= 7.92D-10 at cycle  14 NSaved=  14.
 NSaved=14 IEnMin=14 EnMin= -616.893586802353     IErMin=14 ErrMin= 7.92D-10
 ErrMax= 7.92D-10 EMaxC= 1.00D-01 BMatC= 1.23D-16 BMatP= 2.00D-15
 IDIUse=1 WtCom= 1.00D+00 WtEn= 0.00D+00
 Coeff-Com:  0.578D-08 0.440D-08-0.220D-07-0.484D-08-0.667D-06-0.308D-06
 Coeff-Com: -0.159D-04-0.789D-04-0.390D-03-0.101D-02 0.879D-03 0.203D-01
 Coeff-Com:  0.225D+00 0.755D+00
 Coeff:      0.578D-08 0.440D-08-0.220D-07-0.484D-08-0.667D-06-0.308D-06
 Coeff:     -0.159D-04-0.789D-04-0.390D-03-0.101D-02 0.879D-03 0.203D-01
 Coeff:      0.225D+00 0.755D+00
 Gap=     0.253 Goal=   None    Shift=    0.000
 RMSDP=5.01D-10 MaxDP=2.32D-08 DE=-2.50D-12 OVMax= 3.46D-09

 Cycle  15  Pass 1  IDiag  1:
 E= -616.893586802354     Delta-E=       -0.000000000001 Rises=F Damp=F
 DIIS: error= 1.39D-10 at cycle  15 NSaved=  15.
 NSaved=15 IEnMin=15 EnMin= -616.893586802354     IErMin=15 ErrMin= 1.39D-10
 ErrMax= 1.39D-10 EMaxC= 1.00D-01 BMatC= 4.10D-18 BMatP= 1.23D-16
 IDIUse=1 WtCom= 1.00D+00 WtEn= 0.00D+00
 Coeff-Com:  0.904D-09 0.605D-09-0.371D-08 0.234D-07 0.122D-07 0.131D-06
 Coeff-Com: -0.380D-06 0.396D-05-0.273D-04-0.216D-03-0.634D-03-0.392D-02
 Coeff-Com:  0.117D-01 0.138D+00 0.855D+00
 Coeff:      0.904D-09 0.605D-09-0.371D-08 0.234D-07 0.122D-07 0.131D-06
 Coeff:     -0.380D-06 0.396D-05-0.273D-04-0.216D-03-0.634D-03-0.392D-02
 Coeff:      0.117D-01 0.138D+00 0.855D+00
 Gap=     0.253 Goal=   None    Shift=    0.000
 RMSDP=8.68D-11 MaxDP=3.42D-09 DE=-6.82D-13 OVMax= 4.24D-10

 Cycle  16  Pass 1  IDiag  1:
 E= -616.893586802354     Delta-E=        0.000000000000 Rises=F Damp=F
 DIIS: error= 3.07D-11 at cycle  16 NSaved=  16.
 NSaved=16 IEnMin=16 EnMin= -616.893586802354     IErMin=16 ErrMin= 3.07D-11
 ErrMax= 3.07D-11 EMaxC= 1.00D-01 BMatC= 2.05D-19 BMatP= 4.10D-18
 IDIUse=1 WtCom= 1.00D+00 WtEn= 0.00D+00
 Large coefficients: NSaved= 16 BigCof=    0.00 CofMax=   10.00 Det=-1.33D-18
 Inversion failed.  Reducing to 15 matrices.
 Coeff-Com: -0.443D-11 0.541D-09 0.855D-08 0.215D-07 0.102D-06 0.458D-06
 Coeff-Com:  0.323D-05 0.689D-05-0.164D-04-0.195D-03-0.156D-02-0.497D-02
 Coeff-Com:  0.900D-02 0.217D+00 0.781D+00
 Coeff:     -0.443D-11 0.541D-09 0.855D-08 0.215D-07 0.102D-06 0.458D-06
 Coeff:      0.323D-05 0.689D-05-0.164D-04-0.195D-03-0.156D-02-0.497D-02
 Coeff:      0.900D-02 0.217D+00 0.781D+00
 Gap=     0.253 Goal=   None    Shift=    0.000
 RMSDP=2.36D-11 MaxDP=7.14D-10 DE=-2.27D-13 OVMax= 1.35D-10

 Cycle  17  Pass 1  IDiag  1:
 E= -616.893586802350     Delta-E=        0.000000000005 Rises=F Damp=F
 DIIS: error= 7.38D-12 at cycle  17 NSaved=  16.
 NSaved=16 IEnMin=15 EnMin= -616.893586802354     IErMin=16 ErrMin= 7.38D-12
 ErrMax= 7.38D-12 EMaxC= 1.00D-01 BMatC= 6.37D-21 BMatP= 2.05D-19
 IDIUse=1 WtCom= 1.00D+00 WtEn= 0.00D+00
 Large coefficients: NSaved= 16 BigCof=    0.00 CofMax=   10.00 Det=-6.00D-20
 Inversion failed.  Reducing to 15 matrices.
 Coeff-Com:  0.667D-09 0.180D-08 0.508D-08 0.281D-07 0.123D-06 0.584D-06
 Coeff-Com:  0.271D-05 0.199D-05-0.354D-04-0.291D-03-0.181D-02-0.248D-02
 Coeff-Com:  0.261D-01 0.206D+00 0.773D+00
 Coeff:      0.667D-09 0.180D-08 0.508D-08 0.281D-07 0.123D-06 0.584D-06
 Coeff:      0.271D-05 0.199D-05-0.354D-04-0.291D-03-0.181D-02-0.248D-02
 Coeff:      0.261D-01 0.206D+00 0.773D+00
 Gap=     0.253 Goal=   None    Shift=    0.000
 RMSDP=1.12D-11 MaxDP=8.45D-10 DE= 4.66D-12 OVMax= 2.00D-11

 Cycle  18  Pass 1  IDiag  1:
 E= -616.893586802351     Delta-E=       -0.000000000001 Rises=F Damp=F
 DIIS: error= 2.18D-12 at cycle  18 NSaved=  16.
 NSaved=16 IEnMin=14 EnMin= -616.893586802354     IErMin=16 ErrMin= 2.18D-12
 ErrMax= 2.18D-12 EMaxC= 1.00D-01 BMatC= 2.00D-22 BMatP= 6.37D-21
 IDIUse=1 WtCom= 1.00D+00 WtEn= 0.00D+00
 Large coefficients: NSaved= 16 BigCof=    0.00 CofMax=   10.00 Det=-1.94D-21
 Inversion failed.  Reducing to 15 matrices.
 Coeff-Com:  0.118D-09 0.355D-09 0.446D-08 0.244D-07 0.126D-06 0.592D-06
 Coeff-Com:  0.756D-06-0.405D-05-0.344D-04-0.248D-03-0.585D-03 0.391D-03
 Coeff-Com:  0.253D-01 0.172D+00 0.803D+00
 Coeff:      0.118D-09 0.355D-09 0.446D-08 0.244D-07 0.126D-06 0.592D-06
 Coeff:      0.756D-06-0.405D-05-0.344D-04-0.248D-03-0.585D-03 0.391D-03
 Coeff:      0.253D-01 0.172D+00 0.803D+00
 Gap=     0.253 Goal=   None    Shift=    0.000
 RMSDP=6.93D-12 MaxDP=1.65D-10 DE=-1.48D-12 OVMax= 4.48D-12

 SCF Done:  E(RB3LYP) =  -616.893586802     A.U. after   18 cycles
             Convg  =    0.6930D-11             -V/T =  2.0030
 KE= 6.150297126882D+02 PE=-1.881506681215D+03 EE= 4.371867008128D+02
 Leave Link  502 at Wed Jul 10 17:23:29 2013, MaxMem=  131072000 cpu:     237.4
 (Enter /cerebro/home/software/apps/g09/l801.exe)
 Range of M.O.s used for correlation:     1   167
 NBasis=   167 NAE=    24 NBE=    24 NFC=     0 NFV=     0
 NROrb=    167 NOA=    24 NOB=    24 NVA=   143 NVB=   143

 **** Warning!!: The largest alpha MO coefficient is  0.70362263D+02

 Leave Link  801 at Wed Jul 10 17:23:29 2013, MaxMem=  131072000 cpu:       0.0
 (Enter /cerebro/home/software/apps/g09/l1002.exe)
 Minotr:  Closed shell wavefunction.
          Direct CPHF calculation.
          Differentiating once with respect to magnetic field using GIAOs.
          Electric field/nuclear overlap derivatives assumed to be zero.
          Requested convergence is 1.0D-11 RMS, and 1.0D-10 maximum.
          NewPWx=F KeepS1=T KeepF1=T KeepIn=T MapXYZ=F SortEE=F KeepMc=T.
          MDV=     131071900 using IRadAn=       4.
 Generate precomputed XC quadrature information.
          Solving linear equations separately, MaxMat=       0.
          Doing perturbations at frequencies    0.071980    0.077357    0.104503    0.128347
 FoFCou: FMM=F IPFlag=           0 FMFlag=           0 FMFlg1=           0
         NFxFlg=           0 DoJE=F BraDBF=F KetDBF=T FulRan=T
         Omega=  0.000000  0.000000  1.000000  0.000000  0.000000 ICntrl=    6100 IOpCl=  0
         NMat0=    1 NMatS0=    1 NMatT0=    0 NMatD0=    1 NMtDS0=    0 NMtDT0=    0
         I1Cent=           7 NGrid=          12.
 Symmetry not used in FoFCou.
 Integrals replicated using symmetry in FoFDir.
 MinBra= 0 MaxBra= 2 Meth= 1.
 IRaf=       0 NMat=  24 IRICut=      30 DoRegI=T DoRafI=T ISym2E= 2 JSym2E=2.
 CalDSu exits because no D1Ps are significant.
          There are    12 degrees of freedom in the 1st order CPHF.  IDoFFX=0.
 LinEq1:  Iter=  0 NonCon=    12 RMS=5.64D-02 Max=1.17D+00
 AX will form    12 AO Fock derivatives at one time.
 LinEq1:  Iter=  1 NonCon=    12 RMS=1.62D-02 Max=8.03D-01
 LinEq1:  Iter=  2 NonCon=    12 RMS=1.25D-02 Max=5.89D-01
 LinEq1:  Iter=  3 NonCon=    12 RMS=5.84D-03 Max=1.74D-01
 LinEq1:  Iter=  4 NonCon=    12 RMS=3.39D-03 Max=5.64D-02
 LinEq1:  Iter=  5 NonCon=    12 RMS=1.34D-03 Max=4.50D-02
 LinEq1:  Iter=  6 NonCon=    12 RMS=7.08D-04 Max=1.61D-02
 LinEq1:  Iter=  7 NonCon=    12 RMS=2.72D-04 Max=3.63D-03
 LinEq1:  Iter=  8 NonCon=    12 RMS=1.11D-04 Max=2.33D-03
 LinEq1:  Iter=  9 NonCon=    12 RMS=3.75D-05 Max=7.36D-04
 LinEq1:  Iter= 10 NonCon=    12 RMS=1.53D-05 Max=2.04D-04
 LinEq1:  Iter= 11 NonCon=    12 RMS=5.92D-06 Max=1.07D-04
 LinEq1:  Iter= 12 NonCon=    12 RMS=2.70D-06 Max=4.41D-05
 LinEq1:  Iter= 13 NonCon=    12 RMS=9.76D-07 Max=1.66D-05
 LinEq1:  Iter= 14 NonCon=    12 RMS=3.46D-07 Max=6.63D-06
 LinEq1:  Iter= 15 NonCon=    12 RMS=9.73D-08 Max=1.58D-06
 LinEq1:  Iter= 16 NonCon=    12 RMS=3.05D-08 Max=6.00D-07
 LinEq1:  Iter= 17 NonCon=    12 RMS=6.50D-09 Max=1.41D-07
 LinEq1:  Iter= 18 NonCon=    12 RMS=1.65D-09 Max=3.28D-08
 LinEq1:  Iter= 19 NonCon=    12 RMS=4.62D-10 Max=7.22D-09
 LinEq1:  Iter= 20 NonCon=    12 RMS=1.25D-10 Max=1.83D-09
 LinEq1:  Iter= 21 NonCon=     5 RMS=3.07D-11 Max=5.85D-10
 LinEq1:  Iter= 22 NonCon=     2 RMS=9.33D-12 Max=1.82D-10
 LinEq1:  Iter= 23 NonCon=     1 RMS=5.36D-12 Max=1.23D-10
 LinEq1:  Iter= 24 NonCon=     0 RMS=5.93D-12 Max=9.36D-11
 Linear equations converged to 1.000D-11 1.000D-10 after    24 iterations.
 FullF1:  Do perturbations    1 to    12.
 Dipole-magnetic dipole polarizability for W=    0.071980:
                 1             2             3 
      1   0.414241D+01 -0.609450D+00 -0.769031D+01
      2  -0.906968D+01 -0.458385D+01 -0.197549D+02
      3   0.220886D+02  0.930103D+01  0.201130D+01
 w=    0.071980 a.u., Optical Rotation Beta=     -0.5233 au.
 Molar Mass =     90.5523 grams/mole, [Alpha] ( 6330.0 A) =     -193.59 deg.
 Dipole-magnetic dipole polarizability for W=    0.077357:
                 1             2             3 
      1   0.420722D+01 -0.591944D+00 -0.768012D+01
      2  -0.922143D+01 -0.461620D+01 -0.198333D+02
      3   0.222436D+02  0.938726D+01  0.202963D+01
 w=    0.077357 a.u., Optical Rotation Beta=     -0.5402 au.
 Molar Mass =     90.5523 grams/mole, [Alpha] ( 5890.0 A) =     -230.83 deg.
 Dipole-magnetic dipole polarizability for W=    0.104503:
                 1             2             3 
      1   0.465823D+01 -0.464200D+00 -0.760080D+01
      2  -0.102551D+02 -0.482481D+01 -0.203405D+02
      3   0.233008D+02  0.998089D+01  0.215551D+01
 w=    0.104503 a.u., Optical Rotation Beta=     -0.6630 au.
 Molar Mass =     90.5523 grams/mole, [Alpha] ( 4360.0 A) =     -516.98 deg.
 Dipole-magnetic dipole polarizability for W=    0.128347:
                 1             2             3 
      1   0.530616D+01 -0.266505D+00 -0.746893D+01
      2  -0.116720D+02 -0.507997D+01 -0.209720D+02
      3   0.247646D+02  0.108164D+02  0.233197D+01
 w=    0.128347 a.u., Optical Rotation Beta=     -0.8527 au.
 Molar Mass =     90.5523 grams/mole, [Alpha] ( 3550.0 A) =    -1002.99 deg.
 End of Minotr Frequency-dependent properties on file   721 Mask=       2 NFrqRd=     4 NDeriv=     1 LenFil=      42:
 Frequencies=    0.071980    0.077357    0.104503    0.128347
 Property number 2 -- FD Optical Rotation Tensor frequency  1    0.071980:
                 1             2             3 
      1   0.414241D+01 -0.609450D+00 -0.769031D+01
      2  -0.906968D+01 -0.458385D+01 -0.197549D+02
      3   0.220886D+02  0.930103D+01  0.201130D+01
 Property number 2 -- FD Optical Rotation Tensor frequency  2    0.077357:
                 1             2             3 
      1   0.420722D+01 -0.591944D+00 -0.768012D+01
      2  -0.922143D+01 -0.461620D+01 -0.198333D+02
      3   0.222436D+02  0.938726D+01  0.202963D+01
 Property number 2 -- FD Optical Rotation Tensor frequency  3    0.104503:
                 1             2             3 
      1   0.465823D+01 -0.464200D+00 -0.760080D+01
      2  -0.102551D+02 -0.482481D+01 -0.203405D+02
      3   0.233008D+02  0.998089D+01  0.215551D+01
 Property number 2 -- FD Optical Rotation Tensor frequency  4    0.128347:
                 1             2             3 
      1   0.530616D+01 -0.266505D+00 -0.746893D+01
      2  -0.116720D+02 -0.507997D+01 -0.209720D+02
      3   0.247646D+02  0.108164D+02  0.233197D+01
 End of Minotr Frequency-dependent properties file   722 does not exist.
 Leave Link 1002 at Wed Jul 10 17:47:42 2013, MaxMem=  131072000 cpu:    1452.7
 (Enter /cerebro/home/software/apps/g09/l601.exe)
 Copying SCF densities to generalized density rwf, IOpCl= 0 IROHF=0.

 **********************************************************************

            Population analysis using the SCF density.

 **********************************************************************

 Orbital symmetries:
       Occupied  (A) (A) (A) (A) (A) (A) (A) (A) (A) (A) (A) (A)
                 (A) (A) (A) (A) (A) (A) (A) (A) (A) (A) (A) (A)
       Virtual   (A) (A) (A) (A) (A) (A) (A) (A) (A) (A) (A) (A)
                 (A) (A) (A) (A) (A) (A) (A) (A) (A) (A) (A) (A)
                 (A) (A) (A) (A) (A) (A) (A) (A) (A) (A) (A) (A)
                 (A) (A) (A) (A) (A) (A) (A) (A) (A) (A) (A) (A)
                 (A) (A) (A) (A) (A) (A) (A) (A) (A) (A) (A) (A)
                 (A) (A) (A) (A) (A) (A) (A) (A) (A) (A) (A) (A)
                 (A) (A) (A) (A) (A) (A) (A) (A) (A) (A) (A) (A)
                 (A) (A) (A) (A) (A) (A) (A) (A) (A) (A) (A) (A)
                 (A) (A) (A) (A) (A) (A) (A) (A) (A) (A) (A) (A)
                 (A) (A) (A) (A) (A) (A) (A) (A) (A) (A) (A) (A)
                 (A) (A) (A) (A) (A) (A) (A) (A) (A) (A) (A) (A)
                 (A) (A) (A) (A) (A) (A) (A) (A) (A) (A) (A)
 The electronic state is 1-A.
 Alpha  occ. eigenvalues -- -101.53685 -10.24466 -10.19338 -10.18355 -10.18173
 Alpha  occ. eigenvalues --   -9.45214  -7.21645  -7.20694  -7.20680  -0.87612
 Alpha  occ. eigenvalues --   -0.78661  -0.74052  -0.63897  -0.57460  -0.48424
 Alpha  occ. eigenvalues --   -0.47526  -0.44623  -0.41680  -0.40318  -0.37795
 Alpha  occ. eigenvalues --   -0.36692  -0.30639  -0.29853  -0.27918
 Alpha virt. eigenvalues --   -0.02598  -0.00796   0.00694   0.00781   0.02633
 Alpha virt. eigenvalues --    0.03074   0.03926   0.04066   0.06359   0.06476
 Alpha virt. eigenvalues --    0.07355   0.08368   0.08689   0.10084   0.11083
 Alpha virt. eigenvalues --    0.11607   0.11885   0.12218   0.12907   0.13075
 Alpha virt. eigenvalues --    0.13580   0.14281   0.15185   0.15636   0.16055
 Alpha virt. eigenvalues --    0.16501   0.17199   0.18845   0.19140   0.20990
 Alpha virt. eigenvalues --    0.21809   0.22908   0.24333   0.25732   0.26399
 Alpha virt. eigenvalues --    0.29019   0.34193   0.35510   0.38925   0.42492
 Alpha virt. eigenvalues --    0.42931   0.44923   0.45927   0.47910   0.48304
 Alpha virt. eigenvalues --    0.49320   0.52486   0.52711   0.56778   0.58580
 Alpha virt. eigenvalues --    0.59547   0.62308   0.63564   0.64685   0.65386
 Alpha virt. eigenvalues --    0.65889   0.68693   0.70955   0.73242   0.73880
 Alpha virt. eigenvalues --    0.77540   0.81717   0.82728   0.86271   0.89108
 Alpha virt. eigenvalues --    0.92105   0.94122   0.96540   0.99980   1.03411
 Alpha virt. eigenvalues --    1.06351   1.08566   1.13608   1.18237   1.20669
 Alpha virt. eigenvalues --    1.29187   1.40579   1.42925   1.44873   1.46584
 Alpha virt. eigenvalues --    1.50427   1.52991   1.55893   1.58297   1.59077
 Alpha virt. eigenvalues --    1.63212   1.66624   1.68482   1.70692   1.73044
 Alpha virt. eigenvalues --    1.78649   1.79560   1.86281   1.88595   1.93502
 Alpha virt. eigenvalues --    1.98130   2.01008   2.07434   2.12096   2.17233
 Alpha virt. eigenvalues --    2.19096   2.20322   2.25365   2.30550   2.31404
 Alpha virt. eigenvalues --    2.36193   2.37890   2.45375   2.46162   2.49154
 Alpha virt. eigenvalues --    2.52697   2.56185   2.57619   2.58256   2.59884
 Alpha virt. eigenvalues --    2.63394   2.72484   2.73617   2.74950   2.77102
 Alpha virt. eigenvalues --    2.84770   2.86960   2.93250   3.05793   3.07847
 Alpha virt. eigenvalues --    3.20677   3.41175   3.50891   3.70978   3.78383
 Alpha virt. eigenvalues --    3.79431   3.93930   4.10419   4.28148   9.76351
 Alpha virt. eigenvalues --   23.71526  23.77558  23.93849  24.24497  25.93427
 Alpha virt. eigenvalues --   25.98154  26.45538 215.75334
          Condensed to atoms (all electrons):
              1          2          3          4          5          6
     1  C    5.389649   0.164693  -0.007289   0.110467  -0.004086   0.378216
     2  C    0.164693   5.457010   0.038721  -0.110740  -0.016685  -0.052799
     3  C   -0.007289   0.038721   5.329715   0.390388  -0.045711   0.024133
     4  C    0.110467  -0.110740   0.390388   5.432965   0.385802  -0.012707
     5  H   -0.004086  -0.016685  -0.045711   0.385802   0.561076   0.000978
     6  H    0.378216  -0.052799   0.024133  -0.012707   0.000978   0.549106
     7  H    0.002031   0.018145  -0.009090   0.388249  -0.039272   0.000113
     8  H   -0.018253  -0.019733   0.326607  -0.038525   0.016432  -0.001099
     9  H   -0.053755   0.490447  -0.142821   0.008269   0.011861  -0.004686
    10  H    0.393646  -0.022774  -0.038649   0.000187   0.001975  -0.019534
    11  H    0.372920  -0.049783   0.012121   0.006839  -0.000885  -0.028977
    12  Cl  -0.055673   0.023618  -0.016410   0.064435   0.000668   0.014429
              7          8          9         10         11         12
     1  C    0.002031  -0.018253  -0.053755   0.393646   0.372920  -0.055673
     2  C    0.018145  -0.019733   0.490447  -0.022774  -0.049783   0.023618
     3  C   -0.009090   0.326607  -0.142821  -0.038649   0.012121  -0.016410
     4  C    0.388249  -0.038525   0.008269   0.000187   0.006839   0.064435
     5  H   -0.039272   0.016432   0.011861   0.001975  -0.000885   0.000668
     6  H    0.000113  -0.001099  -0.004686  -0.019534  -0.028977   0.014429
     7  H    0.542406  -0.022366  -0.003398  -0.000931   0.000220  -0.004464
     8  H   -0.022366   0.564016   0.007640   0.005364  -0.002988   0.020970
     9  H   -0.003398   0.007640   0.518531   0.007366  -0.011928  -0.049640
    10  H   -0.000931   0.005364   0.007366   0.541909  -0.032400   0.011367
    11  H    0.000220  -0.002988  -0.011928  -0.032400   0.579712   0.018231
    12  Cl  -0.004464   0.020970  -0.049640   0.011367   0.018231  16.974922
 Mulliken atomic charges:
              1
     1  C   -0.672566
     2  C    0.079880
     3  C    0.138286
     4  C   -0.625629
     5  H    0.127848
     6  H    0.152828
     7  H    0.128357
     8  H    0.161937
     9  H    0.222116
    10  H    0.152476
    11  H    0.136920
    12  Cl  -0.002453
 Sum of Mulliken atomic charges =   0.00000
 Mulliken charges with hydrogens summed into heavy atoms:
              1
     1  C   -0.230343
     2  C    0.301996
     3  C    0.300223
     4  C   -0.369424
    12  Cl  -0.002453
 Sum of Mulliken charges with hydrogens summed into heavy atoms =   0.00000
 Electronic spatial extent (au):  <R**2>=            628.3280
 Charge=              0.0000 electrons
 Dipole moment (field-independent basis, Debye):
    X=             -1.4915    Y=              1.5386    Z=             -0.3427  Tot=              2.1701
 Quadrupole moment (field-independent basis, Debye-Ang):
   XX=            -39.1429   YY=            -40.1335   ZZ=            -37.2500
   XY=              2.0805   XZ=             -0.0688   YZ=              0.0218
 Traceless Quadrupole moment (field-independent basis, Debye-Ang):
   XX=             -0.3007   YY=             -1.2913   ZZ=              1.5921
   XY=              2.0805   XZ=             -0.0688   YZ=              0.0218
 Octapole moment (field-independent basis, Debye-Ang**2):
  XXX=             -1.9073  YYY=              1.0472  ZZZ=             -0.5387  XYY=              5.2414
  XXY=             -4.1126  XXZ=              0.4324  XZZ=             -0.7366  YZZ=             -0.3049
  YYZ=             -0.3632  XYZ=             -0.6929
 Hexadecapole moment (field-independent basis, Debye-Ang**3):
 XXXX=           -487.3178 YYYY=           -278.2568 ZZZZ=            -80.8032 XXXY=              6.4951
 XXXZ=             -3.8671 YYYX=             -9.3113 YYYZ=             -1.5114 ZZZX=              0.7973
 ZZZY=              1.7865 XXYY=           -131.1846 XXZZ=            -95.4287 YYZZ=            -61.0246
 XXYZ=             -1.9958 YYXZ=              1.3976 ZZXY=              1.6137
 N-N= 2.123966809117D+02 E-N=-1.881506681215D+03  KE= 6.150297126882D+02
 No NMR shielding tensors so no spin-rotation constants.
 Leave Link  601 at Wed Jul 10 17:47:43 2013, MaxMem=  131072000 cpu:       0.3
 (Enter /cerebro/home/software/apps/g09/l9999.exe)
 AllDun Frequency-dependent properties on file 20721 Mask=       2 NFrqRd=     4 NDeriv=     1 LenFil=      42:
 Frequencies=    0.071980    0.077357    0.104503    0.128347
 Property number 2 -- FD Optical Rotation Tensor frequency  1    0.071980:
                 1             2             3 
      1   0.433993D+01 -0.390423D+00 -0.738004D+01
      2  -0.912458D+01 -0.467292D+01 -0.198917D+02
      3   0.218712D+02  0.961561D+01  0.190285D+01
 Property number 2 -- FD Optical Rotation Tensor frequency  2    0.077357:
                 1             2             3 
      1   0.440737D+01 -0.371121D+00 -0.736862D+01
      2  -0.927593D+01 -0.470748D+01 -0.199698D+02
      3   0.220238D+02  0.970395D+01  0.192076D+01
 Property number 2 -- FD Optical Rotation Tensor frequency  3    0.104503:
                 1             2             3 
      1   0.487622D+01 -0.231219D+00 -0.728126D+01
      2  -0.103069D+02 -0.493121D+01 -0.204748D+02
      3   0.230636D+02  0.103119D+02  0.204391D+01
 Property number 2 -- FD Optical Rotation Tensor frequency  4    0.128347:
                 1             2             3 
      1   0.554836D+01 -0.169563D-01 -0.713933D+01
      2  -0.117199D+02 -0.520726D+01 -0.211028D+02
      3   0.245034D+02  0.111675D+02  0.221707D+01
 1\1\GINC-COMPUTE-0-102\SP\RB3LYP\6-311++G(d,p)\C4H7Cl1\CRAWDAD\10-Jul-
 2013\0\\#P B3LYP/6-311++G** scf(conver=11) int=ultrafine polar=optrot 
 cphf(rdfreq,conver=11)\\(R)-3-chloro-1-butene tau=120\\0,1\C,0,0.47753
 351,1.76344736,0.04221864\C,0,0.04496277,0.33115182,-0.29664732\C,0,-1
 .20085185,-0.11916198,0.41308364\C,0,-2.344603,-0.49997515,-0.15614041
 \H,0,-2.45913138,-0.62262454,-1.23115527\H,0,1.36690427,2.0356008,-0.5
 3023829\H,0,-3.21820942,-0.70472068,0.45964888\H,0,-1.16341832,-0.0368
 1506,1.49943007\H,0,-0.11129692,0.26560941,-1.37400037\H,0,0.69134577,
 1.89866949,1.10643646\H,0,-0.33499895,2.44103429,-0.24126533\Cl,0,1.37
 347441,-0.82854595,0.01747636\\Version=EM64L-G09RevA.02\State=1-A\HF=-
 616.8935868\RMSD=6.930e-12\Dipole=-0.5968819,0.5966048,-0.1292825\Quad
 rupole=-0.2740071,-0.910016,1.1840231,1.5581695,-0.0371477,-0.002518\P
 G=C01 [X(C4H7Cl1)]\\@


 THE FIRST AND LAST THING REQUIRED OF GENIUS IS THE LOVE OF TRUTH.

                          -- GOETHE
 Job cpu time:  0 days  0 hours 28 minutes 19.2 seconds.
 File lengths (MBytes):  RWF=    120 Int=      0 D2E=      0 Chk=      2 Scr=      1
 Normal termination of Gaussian 09 at Wed Jul 10 17:47:43 2013.
