(R)-3-chloro-1-butene tau=120                                           
SP        RB3LYP                                                      6-311++G(d,p)       
Number of atoms                            I               12
Info1-9                                    I   N=           9
          26          26           0           0           0         110
           1          18        -502
Full Title                                 C   N=           3
(R)-3-chloro-1-butene tau=120       
Route                                      C   N=           7
#P B3LYP/6-311++G** scf(conver=11) int=ultrafine polar=optro
t cphf(rdfreq,conver=11)
Charge                                     I                0
Multiplicity                               I                1
Number of electrons                        I               48
Number of alpha electrons                  I               24
Number of beta electrons                   I               24
Number of basis functions                  I              167
Number of independent functions            I              167
Number of point charges in /Mol/           I                0
Number of translation vectors              I                0
Atomic numbers                             I   N=          12
           6           6           6           6           1           1
           1           1           1           1           1          17
Nuclear charges                            R   N=          12
  6.00000000E+00  6.00000000E+00  6.00000000E+00  6.00000000E+00  1.00000000E+00
  1.00000000E+00  1.00000000E+00  1.00000000E+00  1.00000000E+00  1.00000000E+00
  1.00000000E+00  1.70000000E+01
Current cartesian coordinates              R   N=          36
  9.56566236E-01  3.31612137E+00  6.13329777E-02  9.73492814E-02  6.18988043E-01
 -5.64308067E-01 -2.27421027E+00 -1.85290177E-01  7.75201874E-01 -4.44381480E+00
 -8.76796590E-01 -3.02358538E-01 -4.65808568E+00 -1.11801375E+00 -2.33297126E+00
  2.64844489E+00  3.79630456E+00 -1.01865563E+00 -6.10408547E+00 -1.22957445E+00
  8.58796210E-01 -2.20690053E+00 -1.77339240E-02  2.82727420E+00 -1.94015069E-01
  4.86915838E-01 -2.60025924E+00  1.35887409E+00  3.57793538E+00  2.07195382E+00
 -5.56450589E-01  4.61774511E+00 -4.87072613E-01  2.57040445E+00 -1.60892439E+00
  5.06897079E-02
Number of symbols in /Mol/                 I                0
Force Field                                I                0
Atom Types                                 C   N=          12
                                                            
                                                            
                        
Int Atom Types                             I   N=          12
           0           0           0           0           0           0
           0           0           0           0           0           0
MM charges                                 R   N=          12
  0.00000000E+00  0.00000000E+00  0.00000000E+00  0.00000000E+00  0.00000000E+00
  0.00000000E+00  0.00000000E+00  0.00000000E+00  0.00000000E+00  0.00000000E+00
  0.00000000E+00  0.00000000E+00
Integer atomic weights                     I   N=          12
          12          12          12          12           1           1
           1           1           1           1           1          35
Real atomic weights                        R   N=          12
  1.20000000E+01  1.20000000E+01  1.20000000E+01  1.20000000E+01  1.00782504E+00
  1.00782504E+00  1.00782504E+00  1.00782504E+00  1.00782504E+00  1.00782504E+00
  1.00782504E+00  3.49688527E+01
Atom fragment info                         I   N=          12
           0           0           0           0           0           0
           0           0           0           0           0           0
Atom residue num                           I   N=          12
           0           0           0           0           0           0
           0           0           0           0           0           0
Nuclear spins                              I   N=          12
           0           0           0           0           1           1
           1           1           1           1           1           3
Nuclear ZEff                               R   N=          12
 -3.60000000E+00 -3.60000000E+00 -3.60000000E+00 -3.60000000E+00 -1.00000000E+00
 -1.00000000E+00 -1.00000000E+00 -1.00000000E+00 -1.00000000E+00 -1.00000000E+00
 -1.00000000E+00 -1.42400000E+01
Nuclear ZNuc                               R   N=          12
  6.00000000E+00  6.00000000E+00  6.00000000E+00  6.00000000E+00  1.00000000E+00
  1.00000000E+00  1.00000000E+00  1.00000000E+00  1.00000000E+00  1.00000000E+00
  1.00000000E+00  1.70000000E+01
Nuclear QMom                               R   N=          12
  0.00000000E+00  0.00000000E+00  0.00000000E+00  0.00000000E+00  0.00000000E+00
  0.00000000E+00  0.00000000E+00  0.00000000E+00  0.00000000E+00  0.00000000E+00
  0.00000000E+00 -8.16500000E+00
Nuclear GFac                               R   N=          12
  0.00000000E+00  0.00000000E+00  0.00000000E+00  0.00000000E+00  2.79284600E+00
  2.79284600E+00  2.79284600E+00  2.79284600E+00  2.79284600E+00  2.79284600E+00
  2.79284600E+00  8.21874000E-01
MicOpt                                     I   N=          12
          -1          -1          -1          -1          -1          -1
          -1          -1          -1          -1          -1          -1
Number of residues                         I                0
Number of secondary structures             I                0
SymInf integers                            I   N=          26
           1           1           1           1           1           0
           0           0           0           0           0           0
           0           0           0           0           0           0
           0           0           0           0           0           0
           0           0
RotTr to input orientation                 R   N=          12
  9.99865248E-01  1.61594908E-02 -2.89078129E-03 -1.61407727E-02  9.99849340E-01
  6.38529529E-03  2.99352889E-03 -6.33777542E-03  9.99975435E-01 -6.88624077E-04
  1.74188892E-03  4.10058760E-05
Number of contracted shells                I               72
Number of primitive shells                 I              126
Pure/Cartesian d shells                    I                0
Pure/Cartesian f shells                    I                0
Highest angular momentum                   I                2
Largest degree of contraction              I                6
Shell types                                I   N=          72
           0          -1          -1          -1          -1          -2
           0          -1          -1          -1          -1          -2
           0          -1          -1          -1          -1          -2
           0          -1          -1          -1          -1          -2
           0           0           0           0           1           0
           0           0           0           1           0           0
           0           0           1           0           0           0
           0           1           0           0           0           0
           1           0           0           0           0           1
           0           0           0           0           1           0
           0           0           0           0           0          -1
           1           1           1           1           1          -2
Number of primitives per shell             I   N=          72
           6           3           1           1           1           1
           6           3           1           1           1           1
           6           3           1           1           1           1
           6           3           1           1           1           1
           3           1           1           1           1           3
           1           1           1           1           3           1
           1           1           1           3           1           1
           1           1           3           1           1           1
           1           3           1           1           1           1
           3           1           1           1           1           6
           3           1           1           1           1           1
           5           2           1           1           1           1
Shell to atom map                          I   N=          72
           1           1           1           1           1           1
           2           2           2           2           2           2
           3           3           3           3           3           3
           4           4           4           4           4           4
           5           5           5           5           5           6
           6           6           6           6           7           7
           7           7           7           8           8           8
           8           8           9           9           9           9
           9          10          10          10          10          10
          11          11          11          11          11          12
          12          12          12          12          12          12
          12          12          12          12          12          12
Primitive exponents                        R   N=         126
  4.56324000E+03  6.82024000E+02  1.54973000E+02  4.44553000E+01  1.30290000E+01
  1.82773000E+00  2.09642000E+01  4.80331000E+00  1.45933000E+00  4.83456000E-01
  1.45585000E-01  4.38000000E-02  6.26000000E-01  4.56324000E+03  6.82024000E+02
  1.54973000E+02  4.44553000E+01  1.30290000E+01  1.82773000E+00  2.09642000E+01
  4.80331000E+00  1.45933000E+00  4.83456000E-01  1.45585000E-01  4.38000000E-02
  6.26000000E-01  4.56324000E+03  6.82024000E+02  1.54973000E+02  4.44553000E+01
  1.30290000E+01  1.82773000E+00  2.09642000E+01  4.80331000E+00  1.45933000E+00
  4.83456000E-01  1.45585000E-01  4.38000000E-02  6.26000000E-01  4.56324000E+03
  6.82024000E+02  1.54973000E+02  4.44553000E+01  1.30290000E+01  1.82773000E+00
  2.09642000E+01  4.80331000E+00  1.45933000E+00  4.83456000E-01  1.45585000E-01
  4.38000000E-02  6.26000000E-01  3.38650000E+01  5.09479000E+00  1.15879000E+00
  3.25840000E-01  1.02741000E-01  3.60000000E-02  7.50000000E-01  3.38650000E+01
  5.09479000E+00  1.15879000E+00  3.25840000E-01  1.02741000E-01  3.60000000E-02
  7.50000000E-01  3.38650000E+01  5.09479000E+00  1.15879000E+00  3.25840000E-01
  1.02741000E-01  3.60000000E-02  7.50000000E-01  3.38650000E+01  5.09479000E+00
  1.15879000E+00  3.25840000E-01  1.02741000E-01  3.60000000E-02  7.50000000E-01
  3.38650000E+01  5.09479000E+00  1.15879000E+00  3.25840000E-01  1.02741000E-01
  3.60000000E-02  7.50000000E-01  3.38650000E+01  5.09479000E+00  1.15879000E+00
  3.25840000E-01  1.02741000E-01  3.60000000E-02  7.50000000E-01  3.38650000E+01
  5.09479000E+00  1.15879000E+00  3.25840000E-01  1.02741000E-01  3.60000000E-02
  7.50000000E-01  1.05819000E+05  1.58720000E+04  3.61965000E+03  1.03080000E+03
  3.39908000E+02  1.24538000E+02  1.24538000E+02  4.95135000E+01  2.08056000E+01
  6.58346000E+00  2.56468000E+00  5.59763000E-01  1.83273000E-01  4.83000000E-02
  5.89776000E+02  1.39849000E+02  4.51413000E+01  1.68733000E+01  2.77152000E+00
  6.74110000E+00  2.77152000E+00  1.02387000E+00  3.81368000E-01  1.09437000E-01
  7.50000000E-01
Contraction coefficients                   R   N=         126
  1.96665025E-03  1.52306019E-02  7.61269097E-02  2.60801033E-01  6.16462078E-01
  2.21006028E-01  1.14660081E-01  9.19999648E-01 -3.03068213E-03  1.00000000E+00
  1.00000000E+00  1.00000000E+00  1.00000000E+00  1.96665025E-03  1.52306019E-02
  7.61269097E-02  2.60801033E-01  6.16462078E-01  2.21006028E-01  1.14660081E-01
  9.19999648E-01 -3.03068213E-03  1.00000000E+00  1.00000000E+00  1.00000000E+00
  1.00000000E+00  1.96665025E-03  1.52306019E-02  7.61269097E-02  2.60801033E-01
  6.16462078E-01  2.21006028E-01  1.14660081E-01  9.19999648E-01 -3.03068213E-03
  1.00000000E+00  1.00000000E+00  1.00000000E+00  1.00000000E+00  1.96665025E-03
  1.52306019E-02  7.61269097E-02  2.60801033E-01  6.16462078E-01  2.21006028E-01
  1.14660081E-01  9.19999648E-01 -3.03068213E-03  1.00000000E+00  1.00000000E+00
  1.00000000E+00  1.00000000E+00  2.54938145E-02  1.90373109E-01  8.52161486E-01
  1.00000000E+00  1.00000000E+00  1.00000000E+00  1.00000000E+00  2.54938145E-02
  1.90373109E-01  8.52161486E-01  1.00000000E+00  1.00000000E+00  1.00000000E+00
  1.00000000E+00  2.54938145E-02  1.90373109E-01  8.52161486E-01  1.00000000E+00
  1.00000000E+00  1.00000000E+00  1.00000000E+00  2.54938145E-02  1.90373109E-01
  8.52161486E-01  1.00000000E+00  1.00000000E+00  1.00000000E+00  1.00000000E+00
  2.54938145E-02  1.90373109E-01  8.52161486E-01  1.00000000E+00  1.00000000E+00
  1.00000000E+00  1.00000000E+00  2.54938145E-02  1.90373109E-01  8.52161486E-01
  1.00000000E+00  1.00000000E+00  1.00000000E+00  1.00000000E+00  2.54938145E-02
  1.90373109E-01  8.52161486E-01  1.00000000E+00  1.00000000E+00  1.00000000E+00
  1.00000000E+00  7.38000247E-04  5.71800191E-03  2.94950099E-02  1.17286039E-01
  3.62949121E-01  5.84149195E-01  1.34176973E-01  6.24249876E-01  2.91755942E-01
  1.00000000E+00  1.00000000E+00  1.00000000E+00  1.00000000E+00  1.00000000E+00
  3.66556935E-03  2.83679194E-02  1.24756603E-01  3.39654631E-01  7.47585963E-01
 -1.57224381E+00  9.92388882E-01  1.00000000E+00  1.00000000E+00  1.00000000E+00
  1.00000000E+00
P(S=P) Contraction coefficients            R   N=         126
  0.00000000E+00  0.00000000E+00  0.00000000E+00  0.00000000E+00  0.00000000E+00
  0.00000000E+00  4.02486927E-02  2.37593957E-01  8.15853851E-01  1.00000000E+00
  1.00000000E+00  1.00000000E+00  0.00000000E+00  0.00000000E+00  0.00000000E+00
  0.00000000E+00  0.00000000E+00  0.00000000E+00  0.00000000E+00  4.02486927E-02
  2.37593957E-01  8.15853851E-01  1.00000000E+00  1.00000000E+00  1.00000000E+00
  0.00000000E+00  0.00000000E+00  0.00000000E+00  0.00000000E+00  0.00000000E+00
  0.00000000E+00  0.00000000E+00  4.02486927E-02  2.37593957E-01  8.15853851E-01
  1.00000000E+00  1.00000000E+00  1.00000000E+00  0.00000000E+00  0.00000000E+00
  0.00000000E+00  0.00000000E+00  0.00000000E+00  0.00000000E+00  0.00000000E+00
  4.02486927E-02  2.37593957E-01  8.15853851E-01  1.00000000E+00  1.00000000E+00
  1.00000000E+00  0.00000000E+00  0.00000000E+00  0.00000000E+00  0.00000000E+00
  0.00000000E+00  0.00000000E+00  0.00000000E+00  0.00000000E+00  0.00000000E+00
  0.00000000E+00  0.00000000E+00  0.00000000E+00  0.00000000E+00  0.00000000E+00
  0.00000000E+00  0.00000000E+00  0.00000000E+00  0.00000000E+00  0.00000000E+00
  0.00000000E+00  0.00000000E+00  0.00000000E+00  0.00000000E+00  0.00000000E+00
  0.00000000E+00  0.00000000E+00  0.00000000E+00  0.00000000E+00  0.00000000E+00
  0.00000000E+00  0.00000000E+00  0.00000000E+00  0.00000000E+00  0.00000000E+00
  0.00000000E+00  0.00000000E+00  0.00000000E+00  0.00000000E+00  0.00000000E+00
  0.00000000E+00  0.00000000E+00  0.00000000E+00  0.00000000E+00  0.00000000E+00
  0.00000000E+00  0.00000000E+00  0.00000000E+00  0.00000000E+00  0.00000000E+00
  0.00000000E+00  0.00000000E+00  0.00000000E+00  0.00000000E+00  0.00000000E+00
  0.00000000E+00  0.00000000E+00  0.00000000E+00  0.00000000E+00  0.00000000E+00
  0.00000000E+00  0.00000000E+00  0.00000000E+00  0.00000000E+00  1.00000000E+00
  0.00000000E+00  0.00000000E+00  0.00000000E+00  0.00000000E+00  0.00000000E+00
  0.00000000E+00  0.00000000E+00  0.00000000E+00  0.00000000E+00  0.00000000E+00
  0.00000000E+00
Coordinates of each shell                  R   N=         216
  9.56566236E-01  3.31612137E+00  6.13329777E-02  9.56566236E-01  3.31612137E+00
  6.13329777E-02  9.56566236E-01  3.31612137E+00  6.13329777E-02  9.56566236E-01
  3.31612137E+00  6.13329777E-02  9.56566236E-01  3.31612137E+00  6.13329777E-02
  9.56566236E-01  3.31612137E+00  6.13329777E-02  9.73492814E-02  6.18988043E-01
 -5.64308067E-01  9.73492814E-02  6.18988043E-01 -5.64308067E-01  9.73492814E-02
  6.18988043E-01 -5.64308067E-01  9.73492814E-02  6.18988043E-01 -5.64308067E-01
  9.73492814E-02  6.18988043E-01 -5.64308067E-01  9.73492814E-02  6.18988043E-01
 -5.64308067E-01 -2.27421027E+00 -1.85290177E-01  7.75201874E-01 -2.27421027E+00
 -1.85290177E-01  7.75201874E-01 -2.27421027E+00 -1.85290177E-01  7.75201874E-01
 -2.27421027E+00 -1.85290177E-01  7.75201874E-01 -2.27421027E+00 -1.85290177E-01
  7.75201874E-01 -2.27421027E+00 -1.85290177E-01  7.75201874E-01 -4.44381480E+00
 -8.76796590E-01 -3.02358538E-01 -4.44381480E+00 -8.76796590E-01 -3.02358538E-01
 -4.44381480E+00 -8.76796590E-01 -3.02358538E-01 -4.44381480E+00 -8.76796590E-01
 -3.02358538E-01 -4.44381480E+00 -8.76796590E-01 -3.02358538E-01 -4.44381480E+00
 -8.76796590E-01 -3.02358538E-01 -4.65808568E+00 -1.11801375E+00 -2.33297126E+00
 -4.65808568E+00 -1.11801375E+00 -2.33297126E+00 -4.65808568E+00 -1.11801375E+00
 -2.33297126E+00 -4.65808568E+00 -1.11801375E+00 -2.33297126E+00 -4.65808568E+00
 -1.11801375E+00 -2.33297126E+00  2.64844489E+00  3.79630456E+00 -1.01865563E+00
  2.64844489E+00  3.79630456E+00 -1.01865563E+00  2.64844489E+00  3.79630456E+00
 -1.01865563E+00  2.64844489E+00  3.79630456E+00 -1.01865563E+00  2.64844489E+00
  3.79630456E+00 -1.01865563E+00 -6.10408547E+00 -1.22957445E+00  8.58796210E-01
 -6.10408547E+00 -1.22957445E+00  8.58796210E-01 -6.10408547E+00 -1.22957445E+00
  8.58796210E-01 -6.10408547E+00 -1.22957445E+00  8.58796210E-01 -6.10408547E+00
 -1.22957445E+00  8.58796210E-01 -2.20690053E+00 -1.77339240E-02  2.82727420E+00
 -2.20690053E+00 -1.77339240E-02  2.82727420E+00 -2.20690053E+00 -1.77339240E-02
  2.82727420E+00 -2.20690053E+00 -1.77339240E-02  2.82727420E+00 -2.20690053E+00
 -1.77339240E-02  2.82727420E+00 -1.94015069E-01  4.86915838E-01 -2.60025924E+00
 -1.94015069E-01  4.86915838E-01 -2.60025924E+00 -1.94015069E-01  4.86915838E-01
 -2.60025924E+00 -1.94015069E-01  4.86915838E-01 -2.60025924E+00 -1.94015069E-01
  4.86915838E-01 -2.60025924E+00  1.35887409E+00  3.57793538E+00  2.07195382E+00
  1.35887409E+00  3.57793538E+00  2.07195382E+00  1.35887409E+00  3.57793538E+00
  2.07195382E+00  1.35887409E+00  3.57793538E+00  2.07195382E+00  1.35887409E+00
  3.57793538E+00  2.07195382E+00 -5.56450589E-01  4.61774511E+00 -4.87072613E-01
 -5.56450589E-01  4.61774511E+00 -4.87072613E-01 -5.56450589E-01  4.61774511E+00
 -4.87072613E-01 -5.56450589E-01  4.61774511E+00 -4.87072613E-01 -5.56450589E-01
  4.61774511E+00 -4.87072613E-01  2.57040445E+00 -1.60892439E+00  5.06897079E-02
  2.57040445E+00 -1.60892439E+00  5.06897079E-02  2.57040445E+00 -1.60892439E+00
  5.06897079E-02  2.57040445E+00 -1.60892439E+00  5.06897079E-02  2.57040445E+00
 -1.60892439E+00  5.06897079E-02  2.57040445E+00 -1.60892439E+00  5.06897079E-02
  2.57040445E+00 -1.60892439E+00  5.06897079E-02  2.57040445E+00 -1.60892439E+00
  5.06897079E-02  2.57040445E+00 -1.60892439E+00  5.06897079E-02  2.57040445E+00
 -1.60892439E+00  5.06897079E-02  2.57040445E+00 -1.60892439E+00  5.06897079E-02
  2.57040445E+00 -1.60892439E+00  5.06897079E-02  2.57040445E+00 -1.60892439E+00
  5.06897079E-02
Constraint Structure                       R   N=          36
  9.56566236E-01  3.31612137E+00  6.13329777E-02  9.73492814E-02  6.18988043E-01
 -5.64308067E-01 -2.27421027E+00 -1.85290177E-01  7.75201874E-01 -4.44381480E+00
 -8.76796590E-01 -3.02358538E-01 -4.65808568E+00 -1.11801375E+00 -2.33297126E+00
  2.64844489E+00  3.79630456E+00 -1.01865563E+00 -6.10408547E+00 -1.22957445E+00
  8.58796210E-01 -2.20690053E+00 -1.77339240E-02  2.82727420E+00 -1.94015069E-01
  4.86915838E-01 -2.60025924E+00  1.35887409E+00  3.57793538E+00  2.07195382E+00
 -5.56450589E-01  4.61774511E+00 -4.87072613E-01  2.57040445E+00 -1.60892439E+00
  5.06897079E-02
Num ILSW                                   I              100
ILSW                                       I   N=         100
           0           0           0           0           2           0
           0           0           0           0         402          -1
           5           0           0           0           0           0
           0           0           0           0           0           0
           1           0           0           0           0           0
           0           0      100000           0          -1           0
           0           0           0           0           0           0
           0           0           0           1           0           0
           0           0           1           0           0           0
           0           0           4          41           0           0
           0           0           5           0           0           0
           0           0           0           0           0           0
           0           0           0           0           0           0
           0           0           0           0           0           0
           0           0           0           0           0           0
           0           0           0           0           0           0
           0           0           0           0
Num RLSW                                   I               41
RLSW                                       R   N=          41
  8.00000000E-01  7.20000000E-01  1.00000000E+00  8.10000000E-01  2.00000000E-01
  0.00000000E+00  0.00000000E+00  1.00000000E+00  0.00000000E+00  0.00000000E+00
  0.00000000E+00  0.00000000E+00  1.00000000E+00  0.00000000E+00  0.00000000E+00
  0.00000000E+00  0.00000000E+00  1.00000000E+00  0.00000000E+00  0.00000000E+00
  0.00000000E+00  0.00000000E+00  1.00000000E+00  0.00000000E+00  0.00000000E+00
  0.00000000E+00  0.00000000E+00  1.00000000E+00  0.00000000E+00  0.00000000E+00
  0.00000000E+00  0.00000000E+00  0.00000000E+00  0.00000000E+00  0.00000000E+00
  0.00000000E+00  0.00000000E+00  0.00000000E+00  1.00000000E+00  1.00000000E+00
  0.00000000E+00
MxBond                                     I                4
NBond                                      I   N=          12
           4           4           3           3           1           1
           1           1           1           1           1           1
IBond                                      I   N=          48
           2           6          10          11           1           3
           9          12           2           4           8           0
           3           5           7           0           4           0
           0           0           1           0           0           0
           4           0           0           0           3           0
           0           0           2           0           0           0
           1           0           0           0           1           0
           0           0           2           0           0           0
RBond                                      R   N=          48
  1.00000000E+00  1.00000000E+00  1.00000000E+00  1.00000000E+00  1.00000000E+00
  1.00000000E+00  1.00000000E+00  1.00000000E+00  1.00000000E+00  2.00000000E+00
  1.00000000E+00  0.00000000E+00  2.00000000E+00  1.00000000E+00  1.00000000E+00
  0.00000000E+00  1.00000000E+00  0.00000000E+00  0.00000000E+00  0.00000000E+00
  1.00000000E+00  0.00000000E+00  0.00000000E+00  0.00000000E+00  1.00000000E+00
  0.00000000E+00  0.00000000E+00  0.00000000E+00  1.00000000E+00  0.00000000E+00
  0.00000000E+00  0.00000000E+00  1.00000000E+00  0.00000000E+00  0.00000000E+00
  0.00000000E+00  1.00000000E+00  0.00000000E+00  0.00000000E+00  0.00000000E+00
  1.00000000E+00  0.00000000E+00  0.00000000E+00  0.00000000E+00  1.00000000E+00
  0.00000000E+00  0.00000000E+00  0.00000000E+00
Virial Ratio                               R      2.003030543200949E+00
SCF Energy                                 R     -6.168935868023510E+02
Total Energy                               R     -6.168935868023510E+02
RMS Density                                R      6.929528100827746E-12
Nuclear derivative order                   I                0
External E-field                           R   N=          35
  0.00000000E+00  0.00000000E+00  0.00000000E+00  0.00000000E+00  0.00000000E+00
  0.00000000E+00  0.00000000E+00  0.00000000E+00  0.00000000E+00  0.00000000E+00
  0.00000000E+00  0.00000000E+00  0.00000000E+00  0.00000000E+00  0.00000000E+00
  0.00000000E+00  0.00000000E+00  0.00000000E+00  0.00000000E+00  0.00000000E+00
  0.00000000E+00  0.00000000E+00  0.00000000E+00  0.00000000E+00  0.00000000E+00
  0.00000000E+00  0.00000000E+00  0.00000000E+00  0.00000000E+00  0.00000000E+00
  0.00000000E+00  0.00000000E+00  0.00000000E+00  0.00000000E+00  0.00000000E+00
IOpCl                                      I                0
IROHF                                      I                0
Alpha Orbital Energies                     R   N=         167
 -1.01536853E+02 -1.02446641E+01 -1.01933800E+01 -1.01835533E+01 -1.01817301E+01
 -9.45213931E+00 -7.21645366E+00 -7.20693760E+00 -7.20680290E+00 -8.76122132E-01
 -7.86610068E-01 -7.40523431E-01 -6.38974987E-01 -5.74599120E-01 -4.84239227E-01
 -4.75263866E-01 -4.46229239E-01 -4.16797991E-01 -4.03180872E-01 -3.77945428E-01
 -3.66922203E-01 -3.06392525E-01 -2.98527685E-01 -2.79182252E-01 -2.59812708E-02
 -7.96024734E-03  6.93698403E-03  7.80675584E-03  2.63346817E-02  3.07426903E-02
  3.92604607E-02  4.06576413E-02  6.35897622E-02  6.47589917E-02  7.35470233E-02
  8.36773368E-02  8.68890337E-02  1.00840862E-01  1.10825492E-01  1.16069073E-01
  1.18852937E-01  1.22181509E-01  1.29065665E-01  1.30753066E-01  1.35796962E-01
  1.42808454E-01  1.51849830E-01  1.56364987E-01  1.60546527E-01  1.65012806E-01
  1.71985139E-01  1.88451261E-01  1.91403981E-01  2.09895013E-01  2.18089403E-01
  2.29082944E-01  2.43334261E-01  2.57315628E-01  2.63986893E-01  2.90185382E-01
  3.41931303E-01  3.55102789E-01  3.89245068E-01  4.24921234E-01  4.29313890E-01
  4.49227078E-01  4.59273707E-01  4.79101376E-01  4.83040648E-01  4.93201260E-01
  5.24863675E-01  5.27113141E-01  5.67781230E-01  5.85801781E-01  5.95470262E-01
  6.23082157E-01  6.35636782E-01  6.46851328E-01  6.53855404E-01  6.58893453E-01
  6.86934241E-01  7.09547582E-01  7.32417516E-01  7.38804153E-01  7.75404949E-01
  8.17174072E-01  8.27281566E-01  8.62705945E-01  8.91081407E-01  9.21048061E-01
  9.41222406E-01  9.65404151E-01  9.99803995E-01  1.03410516E+00  1.06351419E+00
  1.08565831E+00  1.13607772E+00  1.18236509E+00  1.20669359E+00  1.29187175E+00
  1.40579297E+00  1.42924981E+00  1.44872717E+00  1.46584261E+00  1.50426862E+00
  1.52991153E+00  1.55892836E+00  1.58297111E+00  1.59077368E+00  1.63212172E+00
  1.66623782E+00  1.68481631E+00  1.70691958E+00  1.73044250E+00  1.78648965E+00
  1.79560258E+00  1.86280693E+00  1.88595364E+00  1.93502127E+00  1.98130194E+00
  2.01007932E+00  2.07434273E+00  2.12096355E+00  2.17232973E+00  2.19095555E+00
  2.20322305E+00  2.25365055E+00  2.30549571E+00  2.31404134E+00  2.36192734E+00
  2.37889658E+00  2.45374927E+00  2.46162379E+00  2.49154366E+00  2.52697160E+00
  2.56184896E+00  2.57619040E+00  2.58255934E+00  2.59883734E+00  2.63393787E+00
  2.72483540E+00  2.73616690E+00  2.74949678E+00  2.77102075E+00  2.84770263E+00
  2.86960123E+00  2.93250263E+00  3.05793100E+00  3.07846683E+00  3.20676814E+00
  3.41175386E+00  3.50890998E+00  3.70978093E+00  3.78382789E+00  3.79430571E+00
  3.93930178E+00  4.10418550E+00  4.28147735E+00  9.76350502E+00  2.37152619E+01
  2.37755801E+01  2.39384924E+01  2.42449734E+01  2.59342685E+01  2.59815437E+01
  2.64553836E+01  2.15753341E+02
Alpha MO coefficients                      R   N=       27889
  7.53526593E-08 -9.49877688E-08 -2.69925924E-06 -3.86884326E-06 -1.73905539E-06
  1.76654105E-06  1.95934379E-05  2.22475989E-05  1.00727626E-05  2.64269839E-06
  2.80231267E-05  3.02232149E-05  1.54974434E-05 -1.54835806E-03 -1.18183031E-04
  4.56499254E-04  3.26008148E-05  7.44429162E-06 -3.53485581E-06 -5.09268604E-06
  1.53361654E-05 -9.65785305E-07  1.35691903E-06 -2.53913959E-06  1.69983901E-05
 -1.70122345E-05  6.03611711E-06 -1.21122025E-05 -2.56593026E-05  3.07218644E-05
 -2.14862751E-05  1.96654812E-04  1.51121208E-04 -1.25037062E-04 -2.06443511E-05
  3.04997583E-03 -5.32212413E-04  5.26216078E-04  6.52972557E-04  1.55371555E-05
 -2.83947111E-06  5.24409123E-06 -3.91668005E-06  1.92338323E-05 -8.31758314E-07
  2.38766489E-06  4.84773474E-06 -2.30656363E-06 -4.64009533E-06 -1.05336490E-05
 -2.91177377E-05  9.13007047E-06  2.65111078E-05  2.55561367E-05  3.94298496E-05
 -1.26019308E-06 -6.39314963E-05 -7.34378576E-04 -1.14237961E-03 -3.49646824E-04
 -1.81204632E-04  5.37164094E-06  7.03093219E-06 -5.13720632E-06 -3.45221277E-07
 -4.60131517E-06  2.53667776E-07 -7.73545091E-07 -1.77932542E-06  7.92738950E-07
  8.61346757E-07  8.30234542E-06  6.96772970E-06 -2.84362929E-06  4.07206211E-07
 -3.72453550E-05 -7.70653590E-05 -1.13203092E-05  7.13865582E-05 -1.74059740E-03
 -3.60292923E-04 -1.56732750E-04 -9.91573050E-05 -3.92259253E-06 -3.08932271E-06
 -4.54080314E-06 -1.13521154E-06 -1.99647468E-06 -3.13411206E-06  3.36345424E-05
  6.48607547E-05  6.47341041E-05  6.14787426E-06  1.76193179E-08  5.91712955E-06
  1.15127023E-05 -7.90957000E-05  8.17704116E-05  2.14282696E-04  8.75109897E-06
  1.25675795E-05 -1.09538617E-05  2.40590075E-06 -2.41498810E-05 -4.72703327E-05
 -1.27157679E-04 -1.59036623E-06  3.36876894E-07  1.44521682E-06  5.88208442E-06
 -3.31862356E-05  7.03254347E-05  1.70582880E-04 -1.12342685E-05  2.14190415E-06
  1.24953932E-05 -2.85487354E-06 -6.71627098E-05 -1.21672406E-04  6.83913903E-05
 -5.00538213E-06 -9.23965112E-08 -1.90745683E-05  9.24579889E-06 -5.65552291E-05
  4.85311633E-06  6.83735104E-05 -4.14002015E-06  1.12127274E-05  1.38813770E-05
 -7.60418012E-06  3.29555296E-05 -1.15688989E-04 -2.77284813E-04 -6.39576957E-07
 -4.70202665E-06 -6.60154111E-07  4.11609287E-01  6.54075481E-01  1.50076261E-02