 Entering Gaussian System, Link 0=g09
 Input=input.dat
 Output=output.dat
 Initial command:
 /cerebro/home/software/apps/g09/l1.exe /scratch/crawdad/Gau-31354.inp -scrdir=/scratch/crawdad/
 Entering Link 1 = /cerebro/home/software/apps/g09/l1.exe PID=     31355.
  
 Copyright (c) 1988,1990,1992,1993,1995,1998,2003,2009, Gaussian, Inc.
                  All Rights Reserved.
  
 This is part of the Gaussian(R) 09 program.  It is based on
 the Gaussian(R) 03 system (copyright 2003, Gaussian, Inc.),
 the Gaussian(R) 98 system (copyright 1998, Gaussian, Inc.),
 the Gaussian(R) 94 system (copyright 1995, Gaussian, Inc.),
 the Gaussian 92(TM) system (copyright 1992, Gaussian, Inc.),
 the Gaussian 90(TM) system (copyright 1990, Gaussian, Inc.),
 the Gaussian 88(TM) system (copyright 1988, Gaussian, Inc.),
 the Gaussian 86(TM) system (copyright 1986, Carnegie Mellon
 University), and the Gaussian 82(TM) system (copyright 1983,
 Carnegie Mellon University). Gaussian is a federally registered
 trademark of Gaussian, Inc.
  
 This software contains proprietary and confidential information,
 including trade secrets, belonging to Gaussian, Inc.
  
 This software is provided under written license and may be
 used, copied, transmitted, or stored only in accord with that
 written license.
  
 The following legend is applicable only to US Government
 contracts under FAR:
  
                    RESTRICTED RIGHTS LEGEND
  
 Use, reproduction and disclosure by the US Government is
 subject to restrictions as set forth in subparagraphs (a)
 and (c) of the Commercial Computer Software - Restricted
 Rights clause in FAR 52.227-19.
  
 Gaussian, Inc.
 340 Quinnipiac St., Bldg. 40, Wallingford CT 06492
  
  
 ---------------------------------------------------------------
 Warning -- This program may not be used in any manner that
 competes with the business of Gaussian, Inc. or will provide
 assistance to any competitor of Gaussian, Inc.  The licensee
 of this program is prohibited from giving any competitor of
 Gaussian, Inc. access to this program.  By using this program,
 the user acknowledges that Gaussian, Inc. is engaged in the
 business of creating and licensing software in the field of
 computational chemistry and represents and warrants to the
 licensee that it is not a competitor of Gaussian, Inc. and that
 it will not use this program in any manner prohibited above.
 ---------------------------------------------------------------
  

 Cite this work as:
 Gaussian 09, Revision A.02,
 M. J. Frisch, G. W. Trucks, H. B. Schlegel, G. E. Scuseria, 
 M. A. Robb, J. R. Cheeseman, G. Scalmani, V. Barone, B. Mennucci, 
 G. A. Petersson, H. Nakatsuji, M. Caricato, X. Li, H. P. Hratchian, 
 A. F. Izmaylov, J. Bloino, G. Zheng, J. L. Sonnenberg, M. Hada, 
 M. Ehara, K. Toyota, R. Fukuda, J. Hasegawa, M. Ishida, T. Nakajima, 
 Y. Honda, O. Kitao, H. Nakai, T. Vreven, J. A. Montgomery, Jr., 
 J. E. Peralta, F. Ogliaro, M. Bearpark, J. J. Heyd, E. Brothers, 
 K. N. Kudin, V. N. Staroverov, R. Kobayashi, J. Normand, 
 K. Raghavachari, A. Rendell, J. C. Burant, S. S. Iyengar, J. Tomasi, 
 M. Cossi, N. Rega, J. M. Millam, M. Klene, J. E. Knox, J. B. Cross, 
 V. Bakken, C. Adamo, J. Jaramillo, R. Gomperts, R. E. Stratmann, 
 O. Yazyev, A. J. Austin, R. Cammi, C. Pomelli, J. W. Ochterski, 
 R. L. Martin, K. Morokuma, V. G. Zakrzewski, G. A. Voth, 
 P. Salvador, J. J. Dannenberg, S. Dapprich, A. D. Daniels, 
 O. Farkas, J. B. Foresman, J. V. Ortiz, J. Cioslowski, 
 and D. J. Fox, Gaussian, Inc., Wallingford CT, 2009.
 
 ******************************************
 Gaussian 09:  EM64L-G09RevA.02 11-Jun-2009
                10-Jul-2013 
 ******************************************
 %chk=vibave
 %mem=1000mb
 %nproc=1
 Will use up to    1 processors via shared memory.
 ----------------------------------------------------------------------
 #P B3LYP/6-311++G** scf(conver=11) int=ultrafine polar=optrot cphf(rdf
 req,conver=11)
 ----------------------------------------------------------------------
 1/38=1,83=21/1;
 2/12=2,17=6,18=5,40=1/2;
 3/5=4,6=6,7=1111,11=2,16=1,25=1,30=1,36=2,74=-5,75=-5/1,2,3;
 4//1;
 5/5=2,6=11,38=5,96=-2,98=1/2;
 8/6=4,10=90,11=11/1;
 10/6=1,7=11,13=10,46=8,60=-2,72=3/2;
 6/7=2,8=2,9=2,10=2,28=1/1;
 99/5=1,9=1/99;
 Leave Link    1 at Wed Jul 10 17:19:08 2013, MaxMem=  131072000 cpu:       0.1
 (Enter /cerebro/home/software/apps/g09/l101.exe)
 -----------------------------
 (R)-3-chloro-1-butene tau=120
 -----------------------------
 Symbolic Z-matrix:
 Charge =  0 Multiplicity = 1
 C                     0.52001   1.71907   0.05458 
 C                    -0.00113   0.34937  -0.36864 
 C                    -1.21144  -0.11094   0.38285 
 C                    -2.37384  -0.51698  -0.13078 
 H                    -2.55847  -0.56258  -1.20329 
 H                     1.43864   1.95983  -0.48365 
 H                    -3.18879  -0.82107   0.52208 
 H                    -1.08804  -0.09847   1.46498 
 H                    -0.13893   0.2739   -1.44755 
 H                     0.74481   1.71853   1.12637 
 H                    -0.22492   2.49953  -0.14863 
 Cl                    1.38224  -0.8077    0.03553 
 
 NAtoms=     12 NQM=     12 NQMF=      0 NMic=      0 NMicF=      0 NTot=     12.
                    Isotopes and Nuclear Properties:
 (Nuclear quadrupole moments (NQMom) in fm**2, nuclear magnetic moments (NMagM)
  in nuclear magnetons)

  Atom         1           2           3           4           5           6           7           8           9          10
 IAtWgt=          12          12          12          12           1           1           1           1           1           1
 AtmWgt=  12.0000000  12.0000000  12.0000000  12.0000000   1.0078250   1.0078250   1.0078250   1.0078250   1.0078250   1.0078250
 NucSpn=           0           0           0           0           1           1           1           1           1           1
 AtZEff=   0.0000000   0.0000000   0.0000000   0.0000000   0.0000000   0.0000000   0.0000000   0.0000000   0.0000000   0.0000000
 NQMom=    0.0000000   0.0000000   0.0000000   0.0000000   0.0000000   0.0000000   0.0000000   0.0000000   0.0000000   0.0000000
 NMagM=    0.0000000   0.0000000   0.0000000   0.0000000   2.7928460   2.7928460   2.7928460   2.7928460   2.7928460   2.7928460

  Atom        11          12
 IAtWgt=           1          35
 AtmWgt=   1.0078250  34.9688527
 NucSpn=           1           3
 AtZEff=   0.0000000   0.0000000
 NQMom=    0.0000000  -8.1650000
 NMagM=    2.7928460   0.8218740
 Using perturbation frequencies:    0.071980    0.077357    0.104503    0.128347
 Leave Link  101 at Wed Jul 10 17:19:09 2013, MaxMem=  131072000 cpu:       0.2
 (Enter /cerebro/home/software/apps/g09/l202.exe)
                          Input orientation:                          
 ---------------------------------------------------------------------
 Center     Atomic      Atomic             Coordinates (Angstroms)
 Number     Number       Type             X           Y           Z
 ---------------------------------------------------------------------
      1          6           0        0.520009    1.719068    0.054580
      2          6           0       -0.001130    0.349370   -0.368635
      3          6           0       -1.211443   -0.110944    0.382852
      4          6           0       -2.373840   -0.516977   -0.130781
      5          1           0       -2.558469   -0.562576   -1.203290
      6          1           0        1.438637    1.959829   -0.483648
      7          1           0       -3.188787   -0.821073    0.522081
      8          1           0       -1.088044   -0.098474    1.464983
      9          1           0       -0.138930    0.273895   -1.447549
     10          1           0        0.744813    1.718526    1.126373
     11          1           0       -0.224922    2.499526   -0.148632
     12         17           0        1.382242   -0.807703    0.035533
 ---------------------------------------------------------------------
                    Distance matrix (angstroms):
                    1          2          3          4          5
     1  C    0.000000
     2  C    1.525375   0.000000
     3  C    2.540597   1.497158   0.000000
     4  C    3.661778   2.537102   1.334110   0.000000
     5  H    4.033009   2.840472   2.129389   1.089239   0.000000
     6  H    1.091574   2.163269   3.473017   4.560051   4.780928
     7  H    4.519518   3.510623   2.105602   1.087586   1.855001
     8  H    2.806872   2.178096   1.089216   2.091622   3.081757
     9  H    2.186119   1.090294   2.156097   2.711859   2.571676
    10  H    1.095115   2.160108   2.779698   4.037810   4.641382
    11  H    1.097876   2.172937   2.840819   3.703709   3.991768
    12  Cl   2.669903   1.848212   2.708008   3.770985   4.138112
                    6          7          8          9         10
     6  H    0.000000
     7  H    5.491627   0.000000
     8  H    3.797090   2.413366   0.000000
     9  H    2.502038   3.792101   3.085826   0.000000
    10  H    1.769686   4.721011   2.602981   3.081077   0.000000
    11  H    1.780713   4.501192   3.177788   2.578374   1.782129
    12  Cl   2.816374   4.596870   2.940858   2.383978   2.824550
                   11         12
    11  H    0.000000
    12  Cl   3.681665   0.000000
 Stoichiometry    C4H7Cl
 Framework group  C1[X(C4H7Cl)]
 Deg. of freedom    30
 Full point group                 C1      NOp   1
 Largest Abelian subgroup         C1      NOp   1
 Largest concise Abelian subgroup C1      NOp   1
                         Standard orientation:                         
 ---------------------------------------------------------------------
 Center     Atomic      Atomic             Coordinates (Angstroms)
 Number     Number       Type             X           Y           Z
 ---------------------------------------------------------------------
      1          6           0       -0.591134    1.697572   -0.062523
      2          6           0       -0.010923    0.354047    0.367667
      3          6           0        1.215509   -0.059329   -0.384972
      4          6           0        2.395715   -0.412245    0.127292
      5          1           0        2.585467   -0.442949    1.199436
      6          1           0       -1.517479    1.902597    0.477275
      7          1           0        3.220807   -0.685700   -0.526380
      8          1           0        1.088310   -0.059183   -1.466735
      9          1           0        0.133333    0.291545    1.446567
     10          1           0       -0.819061    1.680476   -1.133520
     11          1           0        0.120579    2.510286    0.133159
     12         17           0       -1.345115   -0.863373   -0.024387
 ---------------------------------------------------------------------
 Rotational constants (GHZ):      5.7429954      2.7035231      2.0013855
 Leave Link  202 at Wed Jul 10 17:19:09 2013, MaxMem=  131072000 cpu:       0.0
 (Enter /cerebro/home/software/apps/g09/l301.exe)
 Standard basis: 6-311++G(d,p) (5D, 7F)
 Ernie: Thresh=  0.10000D-02 Tol=  0.10000D-05 Strict=F.
 There are   167 symmetry adapted basis functions of A   symmetry.
 Integral buffers will be    131072 words long.
 Raffenetti 2 integral format.
 Two-electron integral symmetry is turned on.
   167 basis functions,   260 primitive gaussians,   172 cartesian basis functions
    24 alpha electrons       24 beta electrons
       nuclear repulsion energy       212.0099094795 Hartrees.
 IExCor=  402 DFT=T Ex+Corr=B3LYP ExCW=0 ScaHFX=  0.200000
 ScaDFX=  0.800000  0.720000  1.000000  0.810000 ScalE2=  1.000000  1.000000
 IRadAn=      5 IRanWt=     -1 IRanGd=            0 ICorTp=0
 NAtoms=   12 NActive=   12 NUniq=   12 SFac= 7.50D-01 NAtFMM=   80 NAOKFM=F Big=F
 Leave Link  301 at Wed Jul 10 17:19:09 2013, MaxMem=  131072000 cpu:       0.1
 (Enter /cerebro/home/software/apps/g09/l302.exe)
 NPDir=0 NMtPBC=     1 NCelOv=     1 NCel=       1 NClECP=     1 NCelD=      1
         NCelK=      1 NCelE2=     1 NClLst=     1 CellRange=     0.0.
 One-electron integrals computed using PRISM.
 NBasis=   167 RedAO= T  NBF=   167
 NBsUse=   167 1.00D-06 NBFU=   167
 Precomputing XC quadrature grid using
 IXCGrd= 2 IRadAn=           5 IRanWt=          -1 IRanGd=           0 AccXCQ= 1.00D-10.
 NRdTot=    1019 NPtTot=      274288 NUsed=      281590 NTot=      281622
 NSgBfM=   172   172   172   172   172 NAtAll=    12    12.
 Leave Link  302 at Wed Jul 10 17:19:10 2013, MaxMem=  131072000 cpu:       0.6
 (Enter /cerebro/home/software/apps/g09/l303.exe)
 DipDrv:  MaxL=2.
 Leave Link  303 at Wed Jul 10 17:19:10 2013, MaxMem=  131072000 cpu:       0.1
 (Enter /cerebro/home/software/apps/g09/l401.exe)
 Harris functional with IExCor=  402 diagonalized for initial guess.
 ExpMin= 3.60D-02 ExpMax= 1.06D+05 ExpMxC= 3.62D+03 IAcc=3 IRadAn=         5 AccDes= 0.00D+00
 HarFok:  IExCor=  402 AccDes= 0.00D+00 IRadAn=         5 IDoV= 1
 ScaDFX=  1.000000  1.000000  1.000000  1.000000
 FoFCou: FMM=F IPFlag=           0 FMFlag=      100000 FMFlg1=           0
         NFxFlg=           0 DoJE=T BraDBF=F KetDBF=T FulRan=T
         Omega=  0.000000  0.000000  1.000000  0.000000  0.000000 ICntrl=     500 IOpCl=  0
         NMat0=    1 NMatS0=    1 NMatT0=    0 NMatD0=    1 NMtDS0=    0 NMtDT0=    0
         I1Cent=           4 NGrid=           0.
 Petite list used in FoFCou.
 Harris En= -616.910223417274    
 Initial guess orbital symmetries:
       Occupied  (A) (A) (A) (A) (A) (A) (A) (A) (A) (A) (A) (A)
                 (A) (A) (A) (A) (A) (A) (A) (A) (A) (A) (A) (A)
       Virtual   (A) (A) (A) (A) (A) (A) (A) (A) (A) (A) (A) (A)
                 (A) (A) (A) (A) (A) (A) (A) (A) (A) (A) (A) (A)
                 (A) (A) (A) (A) (A) (A) (A) (A) (A) (A) (A) (A)
                 (A) (A) (A) (A) (A) (A) (A) (A) (A) (A) (A) (A)
                 (A) (A) (A) (A) (A) (A) (A) (A) (A) (A) (A) (A)
                 (A) (A) (A) (A) (A) (A) (A) (A) (A) (A) (A) (A)
                 (A) (A) (A) (A) (A) (A) (A) (A) (A) (A) (A) (A)
                 (A) (A) (A) (A) (A) (A) (A) (A) (A) (A) (A) (A)
                 (A) (A) (A) (A) (A) (A) (A) (A) (A) (A) (A) (A)
                 (A) (A) (A) (A) (A) (A) (A) (A) (A) (A) (A) (A)
                 (A) (A) (A) (A) (A) (A) (A) (A) (A) (A) (A) (A)
                 (A) (A) (A) (A) (A) (A) (A) (A) (A) (A) (A)
 The electronic state of the initial guess is 1-A.
 Leave Link  401 at Wed Jul 10 17:19:17 2013, MaxMem=  131072000 cpu:       7.5
 (Enter /cerebro/home/software/apps/g09/l502.exe)
 Closed shell SCF:
 Requested convergence on RMS density matrix=1.00D-11 within 128 cycles.
 Requested convergence on MAX density matrix=1.00D-09.
 Requested convergence on             energy=1.00D-09.
 No special actions if energy rises.
 Using DIIS extrapolation, IDIIS=  1040.
 Integral symmetry usage will be decided dynamically.
       281469 words used for storage of precomputed grid.
 Keep R1 ints in memory in canonical form, NReq=113664361.
 IEnd=      390694 IEndB=      390694 NGot=   131072000 MDV=    20042794
 LenX=    20042794 LenY=    20012769
 Symmetry not used in FoFDir.
 MinBra= 0 MaxBra= 2 Meth= 1.
 IRaf=       0 NMat=   1 IRICut=       1 DoRegI=T DoRafI=F ISym2E= 0 JSym2E=0.

 Cycle   1  Pass 1  IDiag  1:
 E= -616.723800848762    
 DIIS: error= 2.66D-02 at cycle   1 NSaved=   1.
 NSaved= 1 IEnMin= 1 EnMin= -616.723800848762     IErMin= 1 ErrMin= 2.66D-02
 ErrMax= 2.66D-02 EMaxC= 1.00D-01 BMatC= 2.02D-01 BMatP= 2.02D-01
 IDIUse=3 WtCom= 7.34D-01 WtEn= 2.66D-01
 Coeff-Com:  0.100D+01
 Coeff-En:   0.100D+01
 Coeff:      0.100D+01
 Gap=     0.387 Goal=   None    Shift=    0.000
 GapD=    0.387 DampG=1.000 DampE=0.500 DampFc=0.5000 IDamp=-1.
 Damping current iteration by 5.00D-01
 RMSDP=6.63D-03 MaxDP=1.46D-01              OVMax= 2.20D-01

 Cycle   2  Pass 1  IDiag  1:
 E= -616.794781231450     Delta-E=       -0.070980382688 Rises=F Damp=T
 DIIS: error= 6.12D-03 at cycle   2 NSaved=   2.
 NSaved= 2 IEnMin= 2 EnMin= -616.794781231450     IErMin= 2 ErrMin= 6.12D-03
 ErrMax= 6.12D-03 EMaxC= 1.00D-01 BMatC= 1.26D-02 BMatP= 2.02D-01
 IDIUse=3 WtCom= 9.39D-01 WtEn= 6.12D-02
 Coeff-Com:  0.362D-01 0.964D+00
 Coeff-En:   0.176D+00 0.824D+00
 Coeff:      0.448D-01 0.955D+00
 Gap=     0.284 Goal=   None    Shift=    0.000
 RMSDP=4.62D-03 MaxDP=2.27D-01 DE=-7.10D-02 OVMax= 1.20D-01

 Cycle   3  Pass 1  IDiag  1:
 E= -616.888541831126     Delta-E=       -0.093760599676 Rises=F Damp=F
 DIIS: error= 5.88D-03 at cycle   3 NSaved=   3.
 NSaved= 3 IEnMin= 3 EnMin= -616.888541831126     IErMin= 3 ErrMin= 5.88D-03
 ErrMax= 5.88D-03 EMaxC= 1.00D-01 BMatC= 4.95D-03 BMatP= 1.26D-02
 IDIUse=3 WtCom= 9.41D-01 WtEn= 5.88D-02
 Coeff-Com: -0.631D-01 0.343D+00 0.720D+00
 Coeff-En:   0.000D+00 0.000D+00 0.100D+01
 Coeff:     -0.593D-01 0.322D+00 0.737D+00
 Gap=     0.258 Goal=   None    Shift=    0.000
 RMSDP=1.93D-03 MaxDP=6.89D-02 DE=-9.38D-02 OVMax= 3.04D-02

 Cycle   4  Pass 1  IDiag  1:
 E= -616.892276554435     Delta-E=       -0.003734723309 Rises=F Damp=F
 DIIS: error= 3.23D-03 at cycle   4 NSaved=   4.
 NSaved= 4 IEnMin= 4 EnMin= -616.892276554435     IErMin= 4 ErrMin= 3.23D-03
 ErrMax= 3.23D-03 EMaxC= 1.00D-01 BMatC= 1.91D-03 BMatP= 4.95D-03
 IDIUse=3 WtCom= 9.68D-01 WtEn= 3.23D-02
 Coeff-Com: -0.376D-01 0.125D+00 0.448D+00 0.465D+00
 Coeff-En:   0.000D+00 0.000D+00 0.247D+00 0.753D+00
 Coeff:     -0.364D-01 0.121D+00 0.441D+00 0.474D+00
 Gap=     0.246 Goal=   None    Shift=    0.000
 RMSDP=5.85D-04 MaxDP=1.98D-02 DE=-3.73D-03 OVMax= 1.29D-02

 Cycle   5  Pass 1  IDiag  1:
 E= -616.894072951118     Delta-E=       -0.001796396683 Rises=F Damp=F
 DIIS: error= 6.02D-04 at cycle   5 NSaved=   5.
 NSaved= 5 IEnMin= 5 EnMin= -616.894072951118     IErMin= 5 ErrMin= 6.02D-04
 ErrMax= 6.02D-04 EMaxC= 1.00D-01 BMatC= 7.35D-05 BMatP= 1.91D-03
 IDIUse=3 WtCom= 9.94D-01 WtEn= 6.02D-03
 Coeff-Com: -0.139D-01 0.402D-01 0.183D+00 0.237D+00 0.554D+00
 Coeff-En:   0.000D+00 0.000D+00 0.000D+00 0.000D+00 0.100D+01
 Coeff:     -0.138D-01 0.400D-01 0.182D+00 0.236D+00 0.557D+00
 Gap=     0.246 Goal=   None    Shift=    0.000
 RMSDP=1.04D-04 MaxDP=4.13D-03 DE=-1.80D-03 OVMax= 6.39D-03

 Cycle   6  Pass 1  IDiag  1:
 E= -616.894135745046     Delta-E=       -0.000062793928 Rises=F Damp=F
 DIIS: error= 2.88D-04 at cycle   6 NSaved=   6.
 NSaved= 6 IEnMin= 6 EnMin= -616.894135745046     IErMin= 6 ErrMin= 2.88D-04
 ErrMax= 2.88D-04 EMaxC= 1.00D-01 BMatC= 1.53D-05 BMatP= 7.35D-05
 IDIUse=3 WtCom= 9.97D-01 WtEn= 2.88D-03
 Coeff-Com: -0.362D-02 0.695D-02 0.537D-01 0.783D-01 0.338D+00 0.527D+00
 Coeff-En:   0.000D+00 0.000D+00 0.000D+00 0.000D+00 0.171D+00 0.829D+00
 Coeff:     -0.361D-02 0.693D-02 0.535D-01 0.781D-01 0.337D+00 0.528D+00
 Gap=     0.246 Goal=   None    Shift=    0.000
 RMSDP=4.72D-05 MaxDP=1.63D-03 DE=-6.28D-05 OVMax= 2.20D-03

 Cycle   7  Pass 1  IDiag  1:
 E= -616.894150756187     Delta-E=       -0.000015011141 Rises=F Damp=F
 DIIS: error= 3.62D-05 at cycle   7 NSaved=   7.
 NSaved= 7 IEnMin= 7 EnMin= -616.894150756187     IErMin= 7 ErrMin= 3.62D-05
 ErrMax= 3.62D-05 EMaxC= 1.00D-01 BMatC= 4.20D-07 BMatP= 1.53D-05
 IDIUse=1 WtCom= 1.00D+00 WtEn= 0.00D+00
 Coeff-Com: -0.651D-03 0.328D-03 0.120D-01 0.180D-01 0.106D+00 0.229D+00
 Coeff-Com:  0.635D+00
 Coeff:     -0.651D-03 0.328D-03 0.120D-01 0.180D-01 0.106D+00 0.229D+00
 Coeff:      0.635D+00
 Gap=     0.246 Goal=   None    Shift=    0.000
 RMSDP=1.05D-05 MaxDP=4.57D-04 DE=-1.50D-05 OVMax= 1.77D-04

 Cycle   8  Pass 1  IDiag  1:
 E= -616.894151135733     Delta-E=       -0.000000379546 Rises=F Damp=F
 DIIS: error= 7.66D-06 at cycle   8 NSaved=   8.
 NSaved= 8 IEnMin= 8 EnMin= -616.894151135733     IErMin= 8 ErrMin= 7.66D-06
 ErrMax= 7.66D-06 EMaxC= 1.00D-01 BMatC= 1.78D-08 BMatP= 4.20D-07
 IDIUse=1 WtCom= 1.00D+00 WtEn= 0.00D+00
 Coeff-Com:  0.492D-04-0.350D-03 0.726D-03 0.131D-02 0.178D-01 0.555D-01
 Coeff-Com:  0.236D+00 0.689D+00
 Coeff:      0.492D-04-0.350D-03 0.726D-03 0.131D-02 0.178D-01 0.555D-01
 Coeff:      0.236D+00 0.689D+00
 Gap=     0.246 Goal=   None    Shift=    0.000
 RMSDP=2.05D-06 MaxDP=6.45D-05 DE=-3.80D-07 OVMax= 4.53D-05

 Cycle   9  Pass 1  IDiag  1:
 E= -616.894151152383     Delta-E=       -0.000000016649 Rises=F Damp=F
 DIIS: error= 2.17D-06 at cycle   9 NSaved=   9.
 NSaved= 9 IEnMin= 9 EnMin= -616.894151152383     IErMin= 9 ErrMin= 2.17D-06
 ErrMax= 2.17D-06 EMaxC= 1.00D-01 BMatC= 1.22D-09 BMatP= 1.78D-08
 IDIUse=1 WtCom= 1.00D+00 WtEn= 0.00D+00
 Coeff-Com:  0.431D-04-0.103D-03-0.484D-03-0.667D-03-0.221D-02-0.366D-03
 Coeff-Com:  0.212D-01 0.245D+00 0.737D+00
 Coeff:      0.431D-04-0.103D-03-0.484D-03-0.667D-03-0.221D-02-0.366D-03
 Coeff:      0.212D-01 0.245D+00 0.737D+00
 Gap=     0.246 Goal=   None    Shift=    0.000
 RMSDP=9.71D-07 MaxDP=4.11D-05 DE=-1.66D-08 OVMax= 8.70D-06

 Cycle  10  Pass 1  IDiag  1:
 E= -616.894151153584     Delta-E=       -0.000000001201 Rises=F Damp=F
 DIIS: error= 4.36D-07 at cycle  10 NSaved=  10.
 NSaved=10 IEnMin=10 EnMin= -616.894151153584     IErMin=10 ErrMin= 4.36D-07
 ErrMax= 4.36D-07 EMaxC= 1.00D-01 BMatC= 4.59D-11 BMatP= 1.22D-09
 IDIUse=1 WtCom= 1.00D+00 WtEn= 0.00D+00
 Coeff-Com:  0.118D-04-0.210D-04-0.189D-03-0.264D-03-0.129D-02-0.161D-02
 Coeff-Com:  0.991D-03 0.754D-01 0.278D+00 0.648D+00
 Coeff:      0.118D-04-0.210D-04-0.189D-03-0.264D-03-0.129D-02-0.161D-02
 Coeff:      0.991D-03 0.754D-01 0.278D+00 0.648D+00
 Gap=     0.246 Goal=   None    Shift=    0.000
 RMSDP=1.56D-07 MaxDP=7.18D-06 DE=-1.20D-09 OVMax= 1.97D-06

 Cycle  11  Pass 1  IDiag  1:
 E= -616.894151153625     Delta-E=       -0.000000000041 Rises=F Damp=F
 DIIS: error= 1.43D-07 at cycle  11 NSaved=  11.
 NSaved=11 IEnMin=11 EnMin= -616.894151153625     IErMin=11 ErrMin= 1.43D-07
 ErrMax= 1.43D-07 EMaxC= 1.00D-01 BMatC= 6.38D-12 BMatP= 4.59D-11
 IDIUse=1 WtCom= 1.00D+00 WtEn= 0.00D+00
 Coeff-Com:  0.198D-05-0.199D-05-0.521D-04-0.727D-04-0.413D-03-0.623D-03
 Coeff-Com: -0.113D-02 0.143D-01 0.654D-01 0.309D+00 0.613D+00
 Coeff:      0.198D-05-0.199D-05-0.521D-04-0.727D-04-0.413D-03-0.623D-03
 Coeff:     -0.113D-02 0.143D-01 0.654D-01 0.309D+00 0.613D+00
 Gap=     0.246 Goal=   None    Shift=    0.000
 RMSDP=3.67D-08 MaxDP=1.35D-06 DE=-4.07D-11 OVMax= 5.15D-07

 Cycle  12  Pass 1  IDiag  1:
 E= -616.894151153629     Delta-E=       -0.000000000005 Rises=F Damp=F
 DIIS: error= 1.98D-08 at cycle  12 NSaved=  12.
 NSaved=12 IEnMin=12 EnMin= -616.894151153629     IErMin=12 ErrMin= 1.98D-08
 ErrMax= 1.98D-08 EMaxC= 1.00D-01 BMatC= 1.17D-13 BMatP= 6.38D-12
 IDIUse=1 WtCom= 1.00D+00 WtEn= 0.00D+00
 Coeff-Com: -0.250D-06 0.754D-06-0.191D-05-0.413D-05-0.326D-04-0.319D-04
 Coeff-Com: -0.334D-03-0.119D-02-0.520D-04 0.376D-01 0.138D+00 0.826D+00
 Coeff:     -0.250D-06 0.754D-06-0.191D-05-0.413D-05-0.326D-04-0.319D-04
 Coeff:     -0.334D-03-0.119D-02-0.520D-04 0.376D-01 0.138D+00 0.826D+00
 Gap=     0.246 Goal=   None    Shift=    0.000
 RMSDP=1.31D-08 MaxDP=5.30D-07 DE=-4.55D-12 OVMax= 1.17D-07

 Cycle  13  Pass 1  IDiag  1:
 E= -616.894151153628     Delta-E=        0.000000000001 Rises=F Damp=F
 DIIS: error= 5.33D-09 at cycle  13 NSaved=  13.
 NSaved=13 IEnMin=12 EnMin= -616.894151153629     IErMin=13 ErrMin= 5.33D-09
 ErrMax= 5.33D-09 EMaxC= 1.00D-01 BMatC= 5.64D-15 BMatP= 1.17D-13
 IDIUse=1 WtCom= 1.00D+00 WtEn= 0.00D+00
 Coeff-Com: -0.146D-06 0.319D-06 0.115D-05 0.955D-06 0.161D-06 0.685D-05
 Coeff-Com: -0.928D-04-0.813D-03-0.195D-02 0.212D-02 0.221D-01 0.251D+00
 Coeff-Com:  0.727D+00
 Coeff:     -0.146D-06 0.319D-06 0.115D-05 0.955D-06 0.161D-06 0.685D-05
 Coeff:     -0.928D-04-0.813D-03-0.195D-02 0.212D-02 0.221D-01 0.251D+00
 Coeff:      0.727D+00
 Gap=     0.246 Goal=   None    Shift=    0.000
 RMSDP=3.32D-09 MaxDP=1.40D-07 DE= 1.14D-12 OVMax= 1.99D-08

 Cycle  14  Pass 1  IDiag  1:
 E= -616.894151153630     Delta-E=       -0.000000000002 Rises=F Damp=F
 DIIS: error= 8.20D-10 at cycle  14 NSaved=  14.
 NSaved=14 IEnMin=14 EnMin= -616.894151153630     IErMin=14 ErrMin= 8.20D-10
 ErrMax= 8.20D-10 EMaxC= 1.00D-01 BMatC= 2.06D-16 BMatP= 5.64D-15
 IDIUse=1 WtCom= 1.00D+00 WtEn= 0.00D+00
 Coeff-Com: -0.110D-07 0.224D-07 0.333D-06 0.400D-06 0.118D-05 0.287D-05
 Coeff-Com: -0.520D-05-0.105D-03-0.440D-03-0.167D-02-0.289D-02 0.128D-01
 Coeff-Com:  0.173D+00 0.820D+00
 Coeff:     -0.110D-07 0.224D-07 0.333D-06 0.400D-06 0.118D-05 0.287D-05
 Coeff:     -0.520D-05-0.105D-03-0.440D-03-0.167D-02-0.289D-02 0.128D-01
 Coeff:      0.173D+00 0.820D+00
 Gap=     0.246 Goal=   None    Shift=    0.000
 RMSDP=7.04D-10 MaxDP=2.81D-08 DE=-1.82D-12 OVMax= 4.63D-09

 Cycle  15  Pass 1  IDiag  1:
 E= -616.894151153634     Delta-E=       -0.000000000004 Rises=F Damp=F
 DIIS: error= 2.02D-10 at cycle  15 NSaved=  15.
 NSaved=15 IEnMin=15 EnMin= -616.894151153634     IErMin=15 ErrMin= 2.02D-10
 ErrMax= 2.02D-10 EMaxC= 1.00D-01 BMatC= 4.17D-18 BMatP= 2.06D-16
 IDIUse=1 WtCom= 1.00D+00 WtEn= 0.00D+00
 Coeff-Com:  0.749D-09-0.156D-08 0.444D-07 0.772D-07 0.223D-06 0.435D-06
 Coeff-Com:  0.903D-06-0.151D-05-0.439D-04-0.355D-03-0.114D-02-0.330D-02
 Coeff-Com:  0.154D-01 0.151D+00 0.838D+00
 Coeff:      0.749D-09-0.156D-08 0.444D-07 0.772D-07 0.223D-06 0.435D-06
 Coeff:      0.903D-06-0.151D-05-0.439D-04-0.355D-03-0.114D-02-0.330D-02
 Coeff:      0.154D-01 0.151D+00 0.838D+00
 Gap=     0.246 Goal=   None    Shift=    0.000
 RMSDP=1.11D-10 MaxDP=3.79D-09 DE=-3.87D-12 OVMax= 7.85D-10

 Cycle  16  Pass 1  IDiag  1:
 E= -616.894151153632     Delta-E=        0.000000000002 Rises=F Damp=F
 DIIS: error= 5.20D-11 at cycle  16 NSaved=  16.
 NSaved=16 IEnMin=15 EnMin= -616.894151153634     IErMin=16 ErrMin= 5.20D-11
 ErrMax= 5.20D-11 EMaxC= 1.00D-01 BMatC= 2.42D-19 BMatP= 4.17D-18
 IDIUse=1 WtCom= 1.00D+00 WtEn= 0.00D+00
 Large coefficients: NSaved= 16 BigCof=    0.00 CofMax=   10.00 Det=-2.65D-18
 Inversion failed.  Reducing to 15 matrices.
 Coeff-Com: -0.169D-09 0.555D-08 0.149D-07 0.446D-07 0.868D-07 0.398D-06
 Coeff-Com:  0.171D-05 0.567D-06-0.290D-04-0.179D-03-0.103D-02-0.192D-02
 Coeff-Com:  0.583D-02 0.205D+00 0.792D+00
 Coeff:     -0.169D-09 0.555D-08 0.149D-07 0.446D-07 0.868D-07 0.398D-06
 Coeff:      0.171D-05 0.567D-06-0.290D-04-0.179D-03-0.103D-02-0.192D-02
 Coeff:      0.583D-02 0.205D+00 0.792D+00
 Gap=     0.246 Goal=   None    Shift=    0.000
 RMSDP=2.97D-11 MaxDP=1.39D-09 DE= 2.05D-12 OVMax= 1.97D-10

 Cycle  17  Pass 1  IDiag  1:
 E= -616.894151153630     Delta-E=        0.000000000002 Rises=F Damp=F
 DIIS: error= 8.26D-12 at cycle  17 NSaved=  16.
 NSaved=16 IEnMin=14 EnMin= -616.894151153634     IErMin=16 ErrMin= 8.26D-12
 ErrMax= 8.26D-12 EMaxC= 1.00D-01 BMatC= 1.05D-20 BMatP= 2.42D-19
 IDIUse=1 WtCom= 1.00D+00 WtEn= 0.00D+00
 Large coefficients: NSaved= 16 BigCof=    0.00 CofMax=   10.00 Det=-1.28D-19
 Inversion failed.  Reducing to 15 matrices.
 Coeff-Com: -0.118D-08-0.673D-09-0.199D-08 0.136D-08 0.554D-07 0.492D-06
 Coeff-Com:  0.247D-05 0.103D-04 0.714D-05-0.111D-03-0.124D-02-0.623D-02
 Coeff-Com:  0.140D-01 0.206D+00 0.788D+00
 Coeff:     -0.118D-08-0.673D-09-0.199D-08 0.136D-08 0.554D-07 0.492D-06
 Coeff:      0.247D-05 0.103D-04 0.714D-05-0.111D-03-0.124D-02-0.623D-02
 Coeff:      0.140D-01 0.206D+00 0.788D+00
 Gap=     0.246 Goal=   None    Shift=    0.000
 RMSDP=2.18D-11 MaxDP=1.54D-09 DE= 1.82D-12 OVMax= 3.15D-11

 Cycle  18  Pass 1  IDiag  1:
 E= -616.894151153629     Delta-E=        0.000000000000 Rises=F Damp=F
 DIIS: error= 2.54D-12 at cycle  18 NSaved=  16.
 NSaved=16 IEnMin=13 EnMin= -616.894151153634     IErMin=16 ErrMin= 2.54D-12
 ErrMax= 2.54D-12 EMaxC= 1.00D-01 BMatC= 4.81D-22 BMatP= 1.05D-20
 IDIUse=1 WtCom= 1.00D+00 WtEn= 0.00D+00
 Large coefficients: NSaved= 16 BigCof=    0.00 CofMax=   10.00 Det=-4.47D-21
 Inversion failed.  Reducing to 15 matrices.
 Coeff-Com:  0.715D-10 0.123D-08 0.209D-08 0.150D-07 0.509D-07 0.253D-06
 Coeff-Com:  0.758D-06-0.422D-06-0.213D-04-0.146D-03-0.935D-03 0.199D-03
 Coeff-Com:  0.280D-01 0.171D+00 0.802D+00
 Coeff:      0.715D-10 0.123D-08 0.209D-08 0.150D-07 0.509D-07 0.253D-06
 Coeff:      0.758D-06-0.422D-06-0.213D-04-0.146D-03-0.935D-03 0.199D-03
 Coeff:      0.280D-01 0.171D+00 0.802D+00
 Gap=     0.246 Goal=   None    Shift=    0.000
 RMSDP=1.97D-11 MaxDP=1.20D-09 DE= 4.55D-13 OVMax= 7.21D-12

 Cycle  19  Pass 1  IDiag  1:
 E= -616.894151153629     Delta-E=        0.000000000000 Rises=F Damp=F
 DIIS: error= 3.50D-12 at cycle  19 NSaved=  16.
 NSaved=16 IEnMin=12 EnMin= -616.894151153634     IErMin=15 ErrMin= 2.54D-12
 ErrMax= 3.50D-12 EMaxC= 1.00D-01 BMatC= 3.72D-22 BMatP= 4.81D-22
 IDIUse=1 WtCom= 1.00D+00 WtEn= 0.00D+00
 Large coefficients: NSaved= 16 BigCof=    0.00 CofMax=   10.00 Det=-1.07D-21
 Inversion failed.  Reducing to 15 matrices.
 Coeff-Com:  0.503D-09 0.417D-09 0.385D-08 0.713D-08 0.872D-07 0.485D-06
 Coeff-Com:  0.908D-06-0.372D-05-0.467D-04-0.433D-03-0.118D-02 0.660D-02
 Coeff-Com:  0.678D-01 0.462D+00 0.465D+00
 Coeff:      0.503D-09 0.417D-09 0.385D-08 0.713D-08 0.872D-07 0.485D-06
 Coeff:      0.908D-06-0.372D-05-0.467D-04-0.433D-03-0.118D-02 0.660D-02
 Coeff:      0.678D-01 0.462D+00 0.465D+00
 Gap=     0.246 Goal=   None    Shift=    0.000
 RMSDP=1.72D-11 MaxDP=1.61D-09 DE= 0.00D+00 OVMax= 4.79D-12

 Cycle  20  Pass 1  IDiag  1:
 E= -616.894151153629     Delta-E=        0.000000000000 Rises=F Damp=F
 DIIS: error= 1.32D-12 at cycle  20 NSaved=  16.
 NSaved=16 IEnMin=11 EnMin= -616.894151153634     IErMin=16 ErrMin= 1.32D-12
 ErrMax= 1.32D-12 EMaxC= 1.00D-01 BMatC= 1.17D-22 BMatP= 3.72D-22
 IDIUse=1 WtCom= 1.00D+00 WtEn= 0.00D+00
 Large coefficients: NSaved= 16 BigCof=    0.00 CofMax=   10.00 Det=-3.71D-22
 Inversion failed.  Reducing to 15 matrices.
 Coeff-Com: -0.475D-09-0.861D-09-0.172D-08 0.428D-07 0.275D-06 0.601D-06
 Coeff-Com: -0.486D-06-0.887D-05-0.160D-03-0.649D-03 0.192D-02 0.308D-01
 Coeff-Com:  0.283D+00 0.198D+00 0.487D+00
 Coeff:     -0.475D-09-0.861D-09-0.172D-08 0.428D-07 0.275D-06 0.601D-06
 Coeff:     -0.486D-06-0.887D-05-0.160D-03-0.649D-03 0.192D-02 0.308D-01
 Coeff:      0.283D+00 0.198D+00 0.487D+00
 Gap=     0.246 Goal=   None    Shift=    0.000
 RMSDP=5.51D-12 MaxDP=1.81D-10 DE= 2.27D-13 OVMax= 1.85D-12

 SCF Done:  E(RB3LYP) =  -616.894151154     A.U. after   20 cycles
             Convg  =    0.5509D-11             -V/T =  2.0031
 KE= 6.149894209149D+02 PE=-1.880732677400D+03 EE= 4.368391958524D+02
 Leave Link  502 at Wed Jul 10 17:23:39 2013, MaxMem=  131072000 cpu:     261.8
 (Enter /cerebro/home/software/apps/g09/l801.exe)
 Range of M.O.s used for correlation:     1   167
 NBasis=   167 NAE=    24 NBE=    24 NFC=     0 NFV=     0
 NROrb=    167 NOA=    24 NOB=    24 NVA=   143 NVB=   143

 **** Warning!!: The largest alpha MO coefficient is  0.77670395D+02

 Leave Link  801 at Wed Jul 10 17:23:39 2013, MaxMem=  131072000 cpu:       0.0
 (Enter /cerebro/home/software/apps/g09/l1002.exe)
 Minotr:  Closed shell wavefunction.
          Direct CPHF calculation.
          Differentiating once with respect to magnetic field using GIAOs.
          Electric field/nuclear overlap derivatives assumed to be zero.
          Requested convergence is 1.0D-11 RMS, and 1.0D-10 maximum.
          NewPWx=F KeepS1=T KeepF1=T KeepIn=T MapXYZ=F SortEE=F KeepMc=T.
          MDV=     131071900 using IRadAn=       4.
 Generate precomputed XC quadrature information.
          Solving linear equations separately, MaxMat=       0.
          Doing perturbations at frequencies    0.071980    0.077357    0.104503    0.128347
 FoFCou: FMM=F IPFlag=           0 FMFlag=           0 FMFlg1=           0
         NFxFlg=           0 DoJE=F BraDBF=F KetDBF=T FulRan=T
         Omega=  0.000000  0.000000  1.000000  0.000000  0.000000 ICntrl=    6100 IOpCl=  0
         NMat0=    1 NMatS0=    1 NMatT0=    0 NMatD0=    1 NMtDS0=    0 NMtDT0=    0
         I1Cent=           7 NGrid=          12.
 Symmetry not used in FoFCou.
 Integrals replicated using symmetry in FoFDir.
 MinBra= 0 MaxBra= 2 Meth= 1.
 IRaf=       0 NMat=  24 IRICut=      30 DoRegI=T DoRafI=T ISym2E= 2 JSym2E=2.
 CalDSu exits because no D1Ps are significant.
          There are    12 degrees of freedom in the 1st order CPHF.  IDoFFX=0.
 LinEq1:  Iter=  0 NonCon=    12 RMS=5.79D-02 Max=1.50D+00
 AX will form    12 AO Fock derivatives at one time.
 LinEq1:  Iter=  1 NonCon=    12 RMS=1.52D-02 Max=7.34D-01
 LinEq1:  Iter=  2 NonCon=    12 RMS=1.26D-02 Max=7.10D-01
 LinEq1:  Iter=  3 NonCon=    12 RMS=6.64D-03 Max=1.57D-01
 LinEq1:  Iter=  4 NonCon=    12 RMS=4.24D-03 Max=7.69D-02
 LinEq1:  Iter=  5 NonCon=    12 RMS=1.73D-03 Max=4.74D-02
 LinEq1:  Iter=  6 NonCon=    12 RMS=8.69D-04 Max=1.38D-02
 LinEq1:  Iter=  7 NonCon=    12 RMS=3.36D-04 Max=5.60D-03
 LinEq1:  Iter=  8 NonCon=    12 RMS=1.45D-04 Max=2.71D-03
 LinEq1:  Iter=  9 NonCon=    12 RMS=5.14D-05 Max=9.04D-04
 LinEq1:  Iter= 10 NonCon=    12 RMS=2.22D-05 Max=3.77D-04
 LinEq1:  Iter= 11 NonCon=    12 RMS=7.71D-06 Max=1.53D-04
 LinEq1:  Iter= 12 NonCon=    12 RMS=3.71D-06 Max=4.88D-05
 LinEq1:  Iter= 13 NonCon=    12 RMS=1.38D-06 Max=2.25D-05
 LinEq1:  Iter= 14 NonCon=    12 RMS=4.56D-07 Max=7.91D-06
 LinEq1:  Iter= 15 NonCon=    12 RMS=1.23D-07 Max=2.37D-06
 LinEq1:  Iter= 16 NonCon=    12 RMS=3.93D-08 Max=7.26D-07
 LinEq1:  Iter= 17 NonCon=    12 RMS=1.13D-08 Max=3.26D-07
 LinEq1:  Iter= 18 NonCon=    12 RMS=2.29D-09 Max=5.68D-08
 LinEq1:  Iter= 19 NonCon=    12 RMS=6.11D-10 Max=1.92D-08
 LinEq1:  Iter= 20 NonCon=    12 RMS=1.75D-10 Max=3.42D-09
 LinEq1:  Iter= 21 NonCon=     8 RMS=6.29D-11 Max=1.90D-09
 LinEq1:  Iter= 22 NonCon=     4 RMS=1.29D-11 Max=2.50D-10
 LinEq1:  Iter= 23 NonCon=     0 RMS=7.26D-12 Max=9.80D-11
 Linear equations converged to 1.000D-11 1.000D-10 after    23 iterations.
 FullF1:  Do perturbations    1 to    12.
 Dipole-magnetic dipole polarizability for W=    0.071980:
                 1             2             3 
      1   0.438386D+01  0.143915D+01 -0.769641D+01
      2   0.724500D+01 -0.409996D+01  0.186144D+02
      3   0.245289D+02 -0.816063D+01  0.106876D+01
 w=    0.071980 a.u., Optical Rotation Beta=     -0.4509 au.
 Molar Mass =     90.5523 grams/mole, [Alpha] ( 6330.0 A) =     -166.80 deg.
 Dipole-magnetic dipole polarizability for W=    0.077357:
                 1             2             3 
      1   0.444936D+01  0.143208D+01 -0.768816D+01
      2   0.735806D+01 -0.413948D+01  0.186819D+02
      3   0.247439D+02 -0.824407D+01  0.109177D+01
 w=    0.077357 a.u., Optical Rotation Beta=     -0.4672 au.
 Molar Mass =     90.5523 grams/mole, [Alpha] ( 5890.0 A) =     -199.64 deg.
 Dipole-magnetic dipole polarizability for W=    0.104503:
                 1             2             3 
      1   0.490636D+01  0.137293D+01 -0.762241D+01
      2   0.812142D+01 -0.439736D+01  0.191155D+02
      3   0.262401D+02 -0.882497D+01  0.125358D+01
 w=    0.104503 a.u., Optical Rotation Beta=     -0.5875 au.
 Molar Mass =     90.5523 grams/mole, [Alpha] ( 4360.0 A) =     -458.15 deg.
 Dipole-magnetic dipole polarizability for W=    0.128347:
                 1             2             3 
      1   0.556845D+01  0.126210D+01 -0.751014D+01
      2   0.914684D+01 -0.472080D+01  0.196475D+02
      3   0.284018D+02 -0.966199D+01  0.149048D+01
 w=    0.128347 a.u., Optical Rotation Beta=     -0.7794 au.
 Molar Mass =     90.5523 grams/mole, [Alpha] ( 3550.0 A) =     -916.72 deg.
 End of Minotr Frequency-dependent properties on file   721 Mask=       2 NFrqRd=     4 NDeriv=     1 LenFil=      42:
 Frequencies=    0.071980    0.077357    0.104503    0.128347
 Property number 2 -- FD Optical Rotation Tensor frequency  1    0.071980:
                 1             2             3 
      1   0.438386D+01  0.143915D+01 -0.769641D+01
      2   0.724500D+01 -0.409996D+01  0.186144D+02
      3   0.245289D+02 -0.816063D+01  0.106876D+01
 Property number 2 -- FD Optical Rotation Tensor frequency  2    0.077357:
                 1             2             3 
      1   0.444936D+01  0.143208D+01 -0.768816D+01
      2   0.735806D+01 -0.413948D+01  0.186819D+02
      3   0.247439D+02 -0.824407D+01  0.109177D+01
 Property number 2 -- FD Optical Rotation Tensor frequency  3    0.104503:
                 1             2             3 
      1   0.490636D+01  0.137293D+01 -0.762241D+01
      2   0.812142D+01 -0.439736D+01  0.191155D+02
      3   0.262401D+02 -0.882497D+01  0.125358D+01
 Property number 2 -- FD Optical Rotation Tensor frequency  4    0.128347:
                 1             2             3 
      1   0.556845D+01  0.126210D+01 -0.751014D+01
      2   0.914684D+01 -0.472080D+01  0.196475D+02
      3   0.284018D+02 -0.966199D+01  0.149048D+01
 End of Minotr Frequency-dependent properties file   722 does not exist.
 Leave Link 1002 at Wed Jul 10 17:48:18 2013, MaxMem=  131072000 cpu:    1478.6
 (Enter /cerebro/home/software/apps/g09/l601.exe)
 Copying SCF densities to generalized density rwf, IOpCl= 0 IROHF=0.

 **********************************************************************

            Population analysis using the SCF density.

 **********************************************************************

 Orbital symmetries:
       Occupied  (A) (A) (A) (A) (A) (A) (A) (A) (A) (A) (A) (A)
                 (A) (A) (A) (A) (A) (A) (A) (A) (A) (A) (A) (A)
       Virtual   (A) (A) (A) (A) (A) (A) (A) (A) (A) (A) (A) (A)
                 (A) (A) (A) (A) (A) (A) (A) (A) (A) (A) (A) (A)
                 (A) (A) (A) (A) (A) (A) (A) (A) (A) (A) (A) (A)
                 (A) (A) (A) (A) (A) (A) (A) (A) (A) (A) (A) (A)
                 (A) (A) (A) (A) (A) (A) (A) (A) (A) (A) (A) (A)
                 (A) (A) (A) (A) (A) (A) (A) (A) (A) (A) (A) (A)
                 (A) (A) (A) (A) (A) (A) (A) (A) (A) (A) (A) (A)
                 (A) (A) (A) (A) (A) (A) (A) (A) (A) (A) (A) (A)
                 (A) (A) (A) (A) (A) (A) (A) (A) (A) (A) (A) (A)
                 (A) (A) (A) (A) (A) (A) (A) (A) (A) (A) (A) (A)
                 (A) (A) (A) (A) (A) (A) (A) (A) (A) (A) (A) (A)
                 (A) (A) (A) (A) (A) (A) (A) (A) (A) (A) (A)
 The electronic state is 1-A.
 Alpha  occ. eigenvalues -- -101.53405 -10.24909 -10.19501 -10.18545 -10.18124
 Alpha  occ. eigenvalues --   -9.44874  -7.21308  -7.20365  -7.20344  -0.86957
 Alpha  occ. eigenvalues --   -0.78522  -0.73999  -0.64189  -0.57665  -0.48548
 Alpha  occ. eigenvalues --   -0.47663  -0.44428  -0.41670  -0.40147  -0.37533
 Alpha  occ. eigenvalues --   -0.36569  -0.30730  -0.29801  -0.27985
 Alpha virt. eigenvalues --   -0.03358  -0.00707   0.00613   0.00743   0.02243
 Alpha virt. eigenvalues --    0.02805   0.03879   0.04023   0.06387   0.06631
 Alpha virt. eigenvalues --    0.07284   0.08261   0.08719   0.09879   0.11085
 Alpha virt. eigenvalues --    0.11646   0.11958   0.12140   0.12892   0.13119
 Alpha virt. eigenvalues --    0.13710   0.14335   0.14927   0.15686   0.15950
 Alpha virt. eigenvalues --    0.16304   0.17194   0.18777   0.19075   0.21504
 Alpha virt. eigenvalues --    0.22082   0.22709   0.24955   0.25956   0.27375
 Alpha virt. eigenvalues --    0.29020   0.34185   0.35718   0.38972   0.42345
 Alpha virt. eigenvalues --    0.43310   0.44511   0.46326   0.47514   0.49042
 Alpha virt. eigenvalues --    0.49740   0.52229   0.52795   0.56226   0.58572
 Alpha virt. eigenvalues --    0.59983   0.62470   0.63214   0.65511   0.66373
 Alpha virt. eigenvalues --    0.66591   0.69410   0.70449   0.72889   0.73458
 Alpha virt. eigenvalues --    0.79690   0.80674   0.82739   0.86338   0.89342
 Alpha virt. eigenvalues --    0.89541   0.94050   0.96283   1.01556   1.04402
 Alpha virt. eigenvalues --    1.06129   1.08263   1.12642   1.16877   1.19854
 Alpha virt. eigenvalues --    1.30307   1.39070   1.43060   1.45188   1.46092
 Alpha virt. eigenvalues --    1.50640   1.53010   1.55730   1.58386   1.58866
 Alpha virt. eigenvalues --    1.62757   1.66875   1.69127   1.70051   1.73367
 Alpha virt. eigenvalues --    1.76814   1.78707   1.87002   1.88072   1.92646
 Alpha virt. eigenvalues --    1.97845   2.01685   2.06622   2.12640   2.17112
 Alpha virt. eigenvalues --    2.19099   2.20113   2.24156   2.29182   2.31342
 Alpha virt. eigenvalues --    2.36547   2.38372   2.45149   2.46191   2.48273
 Alpha virt. eigenvalues --    2.52740   2.56182   2.57036   2.58964   2.60665
 Alpha virt. eigenvalues --    2.64914   2.72545   2.73670   2.76203   2.78517
 Alpha virt. eigenvalues --    2.85906   2.86599   2.92601   3.07199   3.09316
 Alpha virt. eigenvalues --    3.18685   3.39220   3.50445   3.70786   3.78967
 Alpha virt. eigenvalues --    3.79308   3.93735   4.10384   4.28359   9.76347
 Alpha virt. eigenvalues --   23.71904  23.78527  23.94023  24.23968  25.93790
 Alpha virt. eigenvalues --   25.98533  26.45886 215.75470
          Condensed to atoms (all electrons):
              1          2          3          4          5          6
     1  C    5.432010   0.110618   0.040331   0.104451  -0.005157   0.380558
     2  C    0.110618   5.671257  -0.155922  -0.184886  -0.020692  -0.061453
     3  C    0.040331  -0.155922   5.445791   0.477017  -0.039789   0.026655
     4  C    0.104451  -0.184886   0.477017   5.391335   0.389564  -0.008003
     5  H   -0.005157  -0.020692  -0.039789   0.389564   0.560704   0.000632
     6  H    0.380558  -0.061453   0.026655  -0.008003   0.000632   0.547166
     7  H    0.001920   0.019246  -0.006230   0.379906  -0.037316   0.000474
     8  H   -0.020457   0.020616   0.311938  -0.038714   0.014392  -0.002788
     9  H   -0.048112   0.479830  -0.147702   0.002987   0.010567  -0.006078
    10  H    0.379910   0.015224  -0.061142   0.002365   0.002096  -0.020392
    11  H    0.373279  -0.085316   0.038602   0.009321  -0.000657  -0.027191
    12  Cl  -0.070003  -0.065471   0.062968   0.066752   0.000874   0.015532
              7          8          9         10         11         12
     1  C    0.001920  -0.020457  -0.048112   0.379910   0.373279  -0.070003
     2  C    0.019246   0.020616   0.479830   0.015224  -0.085316  -0.065471
     3  C   -0.006230   0.311938  -0.147702  -0.061142   0.038602   0.062968
     4  C    0.379906  -0.038714   0.002987   0.002365   0.009321   0.066752
     5  H   -0.037316   0.014392   0.010567   0.002096  -0.000657   0.000874
     6  H    0.000474  -0.002788  -0.006078  -0.020392  -0.027191   0.015532
     7  H    0.539929  -0.021228  -0.003224  -0.000574   0.000263  -0.004503
     8  H   -0.021228   0.556778   0.010359   0.002993  -0.004338   0.014460
     9  H   -0.003224   0.010359   0.515156   0.009727  -0.014393  -0.052088
    10  H   -0.000574   0.002993   0.009727   0.534896  -0.031598   0.009863
    11  H    0.000263  -0.004338  -0.014393  -0.031598   0.584682   0.025660
    12  Cl  -0.004503   0.014460  -0.052088   0.009863   0.025660  17.087221
 Mulliken atomic charges:
              1
     1  C   -0.679350
     2  C    0.256947
     3  C    0.007482
     4  C   -0.592097
     5  H    0.124782
     6  H    0.154888
     7  H    0.131338
     8  H    0.155988
     9  H    0.242972
    10  H    0.156631
    11  H    0.131685
    12  Cl  -0.091266
 Sum of Mulliken atomic charges =   0.00000
 Mulliken charges with hydrogens summed into heavy atoms:
              1
     1  C   -0.236146
     2  C    0.499919
     3  C    0.163470
     4  C   -0.335977
    12  Cl  -0.091266
 Sum of Mulliken charges with hydrogens summed into heavy atoms =   0.00000
 Electronic spatial extent (au):  <R**2>=            629.4314
 Charge=              0.0000 electrons
 Dipole moment (field-independent basis, Debye):
    X=              1.5609    Y=              1.5712    Z=              0.3437  Tot=              2.2412
 Quadrupole moment (field-independent basis, Debye-Ang):
   XX=            -39.0700   YY=            -40.4260   ZZ=            -37.1061
   XY=             -2.4110   XZ=              0.1262   YZ=              0.3561
 Traceless Quadrupole moment (field-independent basis, Debye-Ang):
   XX=             -0.2026   YY=             -1.5586   ZZ=              1.7613
   XY=             -2.4110   XZ=              0.1262   YZ=              0.3561
 Octapole moment (field-independent basis, Debye-Ang**2):
  XXX=              2.1008  YYY=              0.9691  ZZZ=              0.7446  XYY=             -4.8543
  XXY=             -4.4294  XXZ=             -0.3381  XZZ=              0.8943  YZZ=             -0.4784
  YYZ=              0.0227  XYZ=             -0.1932
 Hexadecapole moment (field-independent basis, Debye-Ang**3):
 XXXX=           -498.0883 YYYY=           -267.8325 ZZZZ=            -80.8128 XXXY=             -9.6300
 XXXZ=             -2.3351 YYYX=              8.3825 YYYZ=              2.1635 ZZZX=              1.4252
 ZZZY=             -0.5523 XXYY=           -131.9301 XXZZ=            -96.6901 YYZZ=            -60.3752
 XXYZ=              3.6864 YYXZ=              0.8132 ZZXY=             -1.5829
 N-N= 2.120099094795D+02 E-N=-1.880732677400D+03  KE= 6.149894209149D+02
 No NMR shielding tensors so no spin-rotation constants.
 Leave Link  601 at Wed Jul 10 17:48:18 2013, MaxMem=  131072000 cpu:       0.3
 (Enter /cerebro/home/software/apps/g09/l9999.exe)
 AllDun Frequency-dependent properties on file 20721 Mask=       2 NFrqRd=     4 NDeriv=     1 LenFil=      42:
 Frequencies=    0.071980    0.077357    0.104503    0.128347
 Property number 2 -- FD Optical Rotation Tensor frequency  1    0.071980:
                 1             2             3 
      1   0.467844D+01 -0.113862D+01 -0.687917D+01
      2  -0.665009D+01 -0.451544D+01 -0.189118D+02
      3   0.242154D+02  0.922785D+01  0.118965D+01
 Property number 2 -- FD Optical Rotation Tensor frequency  2    0.077357:
                 1             2             3 
      1   0.474750D+01 -0.112715D+01 -0.686798D+01
      2  -0.675693D+01 -0.455910D+01 -0.189788D+02
      3   0.244274D+02  0.932082D+01  0.121326D+01
 Property number 2 -- FD Optical Rotation Tensor frequency  3    0.104503:
                 1             2             3 
      1   0.522781D+01 -0.103802D+01 -0.678335D+01
      2  -0.747777D+01 -0.484421D+01 -0.194088D+02
      3   0.259033D+02  0.996795D+01  0.137899D+01
 Property number 2 -- FD Optical Rotation Tensor frequency  4    0.128347:
                 1             2             3 
      1   0.591925D+01 -0.885991D+00 -0.664800D+01
      2  -0.844430D+01 -0.520213D+01 -0.199350D+02
      3   0.280353D+02  0.109004D+02  0.162100D+01
 1\1\GINC-COMPUTE-0-106\SP\RB3LYP\6-311++G(d,p)\C4H7Cl1\CRAWDAD\10-Jul-
 2013\0\\#P B3LYP/6-311++G** scf(conver=11) int=ultrafine polar=optrot 
 cphf(rdfreq,conver=11)\\(R)-3-chloro-1-butene tau=120\\0,1\C,0,0.52000
 857,1.71906804,0.05458017\C,0,-0.00112973,0.34937035,-0.36863524\C,0,-
 1.21144323,-0.11094386,0.38285193\C,0,-2.37383993,-0.51697745,-0.13078
 131\H,0,-2.55846941,-0.56257561,-1.20328991\H,0,1.43863705,1.95982884,
 -0.48364828\H,0,-3.18878726,-0.82107328,0.52208114\H,0,-1.08804385,-0.
 09847408,1.46498326\H,0,-0.13893042,0.27389528,-1.44754919\H,0,0.74481
 299,1.7185257,1.12637293\H,0,-0.22492184,2.49952591,-0.14863152\Cl,0,1
 .38224162,-0.80770329,0.03553296\\Version=EM64L-G09RevA.02\State=1-A\H
 F=-616.8941512\RMSD=5.509e-12\Dipole=-0.6393504,0.5906168,-0.1411763\Q
 uadrupole=-0.3053374,-1.0079736,1.313311,1.8302972,0.0877808,-0.239486
 6\PG=C01 [X(C4H7Cl1)]\\@


 ALTHOUGH J.J. COULD DIAGNOSE THE FAULTS OF AN
 APPARATUS WITH UNCANNY ACCURACY, IT WAS JUST AS
 WELL NOT TO LET HIM HANDLE IT.
   -- GEORGE THOMPSON, ABOUT HIS FATHER
 Job cpu time:  0 days  0 hours 29 minutes  9.4 seconds.
 File lengths (MBytes):  RWF=    119 Int=      0 D2E=      0 Chk=      2 Scr=      1
 Normal termination of Gaussian 09 at Wed Jul 10 17:48:18 2013.
