(R)-3-chloro-1-butene tau=120                                           
SP        RB3LYP                                                      6-311++G(d,p)       
Number of atoms                            I               12
Info1-9                                    I   N=           9
          26          26           0           0           0         110
           1          18        -502
Full Title                                 C   N=           3
(R)-3-chloro-1-butene tau=120       
Route                                      C   N=           7
#P B3LYP/6-311++G** scf(conver=11) int=ultrafine polar=optro
t cphf(rdfreq,conver=11)
Charge                                     I                0
Multiplicity                               I                1
Number of electrons                        I               48
Number of alpha electrons                  I               24
Number of beta electrons                   I               24
Number of basis functions                  I              167
Number of independent functions            I              167
Number of point charges in /Mol/           I                0
Number of translation vectors              I                0
Atomic numbers                             I   N=          12
           6           6           6           6           1           1
           1           1           1           1           1          17
Nuclear charges                            R   N=          12
  6.00000000E+00  6.00000000E+00  6.00000000E+00  6.00000000E+00  1.00000000E+00
  1.00000000E+00  1.00000000E+00  1.00000000E+00  1.00000000E+00  1.00000000E+00
  1.00000000E+00  1.70000000E+01
Current cartesian coordinates              R   N=          36
 -1.11708058E+00  3.20794599E+00 -1.18152223E-01 -2.06411884E-02  6.69051657E-01
  6.94790751E-01  2.29697928E+00 -1.12115387E-01 -7.27491601E-01  4.52724433E+00
 -7.79029574E-01  2.40546418E-01  4.88582384E+00 -8.37052936E-01  2.26660543E+00
 -2.86762030E+00  3.59538685E+00  9.01918928E-01  6.08644368E+00 -1.29578539E+00
 -9.94714357E-01  2.05660707E+00 -1.11840434E-01 -2.77172758E+00  2.51962956E-01
  5.50940558E-01  2.73361574E+00 -1.54780009E+00  3.17564028E+00 -2.14204282E+00
  2.27861661E-01  4.74375283E+00  2.51634433E-01 -2.54189941E+00 -1.63153870E+00
 -4.60852853E-02
Number of symbols in /Mol/                 I                0
Force Field                                I                0
Atom Types                                 C   N=          12
                                                            
                                                            
                        
Int Atom Types                             I   N=          12
           0           0           0           0           0           0
           0           0           0           0           0           0
MM charges                                 R   N=          12
  0.00000000E+00  0.00000000E+00  0.00000000E+00  0.00000000E+00  0.00000000E+00
  0.00000000E+00  0.00000000E+00  0.00000000E+00  0.00000000E+00  0.00000000E+00
  0.00000000E+00  0.00000000E+00
Integer atomic weights                     I   N=          12
          12          12          12          12           1           1
           1           1           1           1           1          35
Real atomic weights                        R   N=          12
  1.20000000E+01  1.20000000E+01  1.20000000E+01  1.20000000E+01  1.00782504E+00
  1.00782504E+00  1.00782504E+00  1.00782504E+00  1.00782504E+00  1.00782504E+00
  1.00782504E+00  3.49688527E+01
Atom fragment info                         I   N=          12
           0           0           0           0           0           0
           0           0           0           0           0           0
Atom residue num                           I   N=          12
           0           0           0           0           0           0
           0           0           0           0           0           0
Nuclear spins                              I   N=          12
           0           0           0           0           1           1
           1           1           1           1           1           3
Nuclear ZEff                               R   N=          12
 -3.60000000E+00 -3.60000000E+00 -3.60000000E+00 -3.60000000E+00 -1.00000000E+00
 -1.00000000E+00 -1.00000000E+00 -1.00000000E+00 -1.00000000E+00 -1.00000000E+00
 -1.00000000E+00 -1.42400000E+01
Nuclear ZNuc                               R   N=          12
  6.00000000E+00  6.00000000E+00  6.00000000E+00  6.00000000E+00  1.00000000E+00
  1.00000000E+00  1.00000000E+00  1.00000000E+00  1.00000000E+00  1.00000000E+00
  1.00000000E+00  1.70000000E+01
Nuclear QMom                               R   N=          12
  0.00000000E+00  0.00000000E+00  0.00000000E+00  0.00000000E+00  0.00000000E+00
  0.00000000E+00  0.00000000E+00  0.00000000E+00  0.00000000E+00  0.00000000E+00
  0.00000000E+00 -8.16500000E+00
Nuclear GFac                               R   N=          12
  0.00000000E+00  0.00000000E+00  0.00000000E+00  0.00000000E+00  2.79284600E+00
  2.79284600E+00  2.79284600E+00  2.79284600E+00  2.79284600E+00  2.79284600E+00
  2.79284600E+00  8.21874000E-01
MicOpt                                     I   N=          12
          -1          -1          -1          -1          -1          -1
          -1          -1          -1          -1          -1          -1
Number of residues                         I                0
Number of secondary structures             I                0
SymInf integers                            I   N=          26
           1           1           1           1           1           0
           0           0           0           0           0           0
           0           0           0           0           0           0
           0           0           0           0           0           0
           0           0
RotTr to input orientation                 R   N=          12
 -9.99091233E-01 -4.25081203E-02 -3.12549071E-03 -4.24870193E-02  9.99075657E-01
 -6.53329460E-03  3.40031975E-03 -6.39456457E-03 -9.99973773E-01  3.30618925E-03
 -4.65347777E-03  2.45948053E-03
Number of contracted shells                I               72
Number of primitive shells                 I              126
Pure/Cartesian d shells                    I                0
Pure/Cartesian f shells                    I                0
Highest angular momentum                   I                2
Largest degree of contraction              I                6
Shell types                                I   N=          72
           0          -1          -1          -1          -1          -2
           0          -1          -1          -1          -1          -2
           0          -1          -1          -1          -1          -2
           0          -1          -1          -1          -1          -2
           0           0           0           0           1           0
           0           0           0           1           0           0
           0           0           1           0           0           0
           0           1           0           0           0           0
           1           0           0           0           0           1
           0           0           0           0           1           0
           0           0           0           0           0          -1
           1           1           1           1           1          -2
Number of primitives per shell             I   N=          72
           6           3           1           1           1           1
           6           3           1           1           1           1
           6           3           1           1           1           1
           6           3           1           1           1           1
           3           1           1           1           1           3
           1           1           1           1           3           1
           1           1           1           3           1           1
           1           1           3           1           1           1
           1           3           1           1           1           1
           3           1           1           1           1           6
           3           1           1           1           1           1
           5           2           1           1           1           1
Shell to atom map                          I   N=          72
           1           1           1           1           1           1
           2           2           2           2           2           2
           3           3           3           3           3           3
           4           4           4           4           4           4
           5           5           5           5           5           6
           6           6           6           6           7           7
           7           7           7           8           8           8
           8           8           9           9           9           9
           9          10          10          10          10          10
          11          11          11          11          11          12
          12          12          12          12          12          12
          12          12          12          12          12          12
Primitive exponents                        R   N=         126
  4.56324000E+03  6.82024000E+02  1.54973000E+02  4.44553000E+01  1.30290000E+01
  1.82773000E+00  2.09642000E+01  4.80331000E+00  1.45933000E+00  4.83456000E-01
  1.45585000E-01  4.38000000E-02  6.26000000E-01  4.56324000E+03  6.82024000E+02
  1.54973000E+02  4.44553000E+01  1.30290000E+01  1.82773000E+00  2.09642000E+01
  4.80331000E+00  1.45933000E+00  4.83456000E-01  1.45585000E-01  4.38000000E-02
  6.26000000E-01  4.56324000E+03  6.82024000E+02  1.54973000E+02  4.44553000E+01
  1.30290000E+01  1.82773000E+00  2.09642000E+01  4.80331000E+00  1.45933000E+00
  4.83456000E-01  1.45585000E-01  4.38000000E-02  6.26000000E-01  4.56324000E+03
  6.82024000E+02  1.54973000E+02  4.44553000E+01  1.30290000E+01  1.82773000E+00
  2.09642000E+01  4.80331000E+00  1.45933000E+00  4.83456000E-01  1.45585000E-01
  4.38000000E-02  6.26000000E-01  3.38650000E+01  5.09479000E+00  1.15879000E+00
  3.25840000E-01  1.02741000E-01  3.60000000E-02  7.50000000E-01  3.38650000E+01
  5.09479000E+00  1.15879000E+00  3.25840000E-01  1.02741000E-01  3.60000000E-02
  7.50000000E-01  3.38650000E+01  5.09479000E+00  1.15879000E+00  3.25840000E-01
  1.02741000E-01  3.60000000E-02  7.50000000E-01  3.38650000E+01  5.09479000E+00
  1.15879000E+00  3.25840000E-01  1.02741000E-01  3.60000000E-02  7.50000000E-01
  3.38650000E+01  5.09479000E+00  1.15879000E+00  3.25840000E-01  1.02741000E-01
  3.60000000E-02  7.50000000E-01  3.38650000E+01  5.09479000E+00  1.15879000E+00
  3.25840000E-01  1.02741000E-01  3.60000000E-02  7.50000000E-01  3.38650000E+01
  5.09479000E+00  1.15879000E+00  3.25840000E-01  1.02741000E-01  3.60000000E-02
  7.50000000E-01  1.05819000E+05  1.58720000E+04  3.61965000E+03  1.03080000E+03
  3.39908000E+02  1.24538000E+02  1.24538000E+02  4.95135000E+01  2.08056000E+01
  6.58346000E+00  2.56468000E+00  5.59763000E-01  1.83273000E-01  4.83000000E-02
  5.89776000E+02  1.39849000E+02  4.51413000E+01  1.68733000E+01  2.77152000E+00
  6.74110000E+00  2.77152000E+00  1.02387000E+00  3.81368000E-01  1.09437000E-01
  7.50000000E-01
Contraction coefficients                   R   N=         126
  1.96665025E-03  1.52306019E-02  7.61269097E-02  2.60801033E-01  6.16462078E-01
  2.21006028E-01  1.14660081E-01  9.19999648E-01 -3.03068213E-03  1.00000000E+00
  1.00000000E+00  1.00000000E+00  1.00000000E+00  1.96665025E-03  1.52306019E-02
  7.61269097E-02  2.60801033E-01  6.16462078E-01  2.21006028E-01  1.14660081E-01
  9.19999648E-01 -3.03068213E-03  1.00000000E+00  1.00000000E+00  1.00000000E+00
  1.00000000E+00  1.96665025E-03  1.52306019E-02  7.61269097E-02  2.60801033E-01
  6.16462078E-01  2.21006028E-01  1.14660081E-01  9.19999648E-01 -3.03068213E-03
  1.00000000E+00  1.00000000E+00  1.00000000E+00  1.00000000E+00  1.96665025E-03
  1.52306019E-02  7.61269097E-02  2.60801033E-01  6.16462078E-01  2.21006028E-01
  1.14660081E-01  9.19999648E-01 -3.03068213E-03  1.00000000E+00  1.00000000E+00
  1.00000000E+00  1.00000000E+00  2.54938145E-02  1.90373109E-01  8.52161486E-01
  1.00000000E+00  1.00000000E+00  1.00000000E+00  1.00000000E+00  2.54938145E-02
  1.90373109E-01  8.52161486E-01  1.00000000E+00  1.00000000E+00  1.00000000E+00
  1.00000000E+00  2.54938145E-02  1.90373109E-01  8.52161486E-01  1.00000000E+00
  1.00000000E+00  1.00000000E+00  1.00000000E+00  2.54938145E-02  1.90373109E-01
  8.52161486E-01  1.00000000E+00  1.00000000E+00  1.00000000E+00  1.00000000E+00
  2.54938145E-02  1.90373109E-01  8.52161486E-01  1.00000000E+00  1.00000000E+00
  1.00000000E+00  1.00000000E+00  2.54938145E-02  1.90373109E-01  8.52161486E-01
  1.00000000E+00  1.00000000E+00  1.00000000E+00  1.00000000E+00  2.54938145E-02
  1.90373109E-01  8.52161486E-01  1.00000000E+00  1.00000000E+00  1.00000000E+00
  1.00000000E+00  7.38000247E-04  5.71800191E-03  2.94950099E-02  1.17286039E-01
  3.62949121E-01  5.84149195E-01  1.34176973E-01  6.24249876E-01  2.91755942E-01
  1.00000000E+00  1.00000000E+00  1.00000000E+00  1.00000000E+00  1.00000000E+00
  3.66556935E-03  2.83679194E-02  1.24756603E-01  3.39654631E-01  7.47585963E-01
 -1.57224381E+00  9.92388882E-01  1.00000000E+00  1.00000000E+00  1.00000000E+00
  1.00000000E+00
P(S=P) Contraction coefficients            R   N=         126
  0.00000000E+00  0.00000000E+00  0.00000000E+00  0.00000000E+00  0.00000000E+00
  0.00000000E+00  4.02486927E-02  2.37593957E-01  8.15853851E-01  1.00000000E+00
  1.00000000E+00  1.00000000E+00  0.00000000E+00  0.00000000E+00  0.00000000E+00
  0.00000000E+00  0.00000000E+00  0.00000000E+00  0.00000000E+00  4.02486927E-02
  2.37593957E-01  8.15853851E-01  1.00000000E+00  1.00000000E+00  1.00000000E+00
  0.00000000E+00  0.00000000E+00  0.00000000E+00  0.00000000E+00  0.00000000E+00
  0.00000000E+00  0.00000000E+00  4.02486927E-02  2.37593957E-01  8.15853851E-01
  1.00000000E+00  1.00000000E+00  1.00000000E+00  0.00000000E+00  0.00000000E+00
  0.00000000E+00  0.00000000E+00  0.00000000E+00  0.00000000E+00  0.00000000E+00
  4.02486927E-02  2.37593957E-01  8.15853851E-01  1.00000000E+00  1.00000000E+00
  1.00000000E+00  0.00000000E+00  0.00000000E+00  0.00000000E+00  0.00000000E+00
  0.00000000E+00  0.00000000E+00  0.00000000E+00  0.00000000E+00  0.00000000E+00
  0.00000000E+00  0.00000000E+00  0.00000000E+00  0.00000000E+00  0.00000000E+00
  0.00000000E+00  0.00000000E+00  0.00000000E+00  0.00000000E+00  0.00000000E+00
  0.00000000E+00  0.00000000E+00  0.00000000E+00  0.00000000E+00  0.00000000E+00
  0.00000000E+00  0.00000000E+00  0.00000000E+00  0.00000000E+00  0.00000000E+00
  0.00000000E+00  0.00000000E+00  0.00000000E+00  0.00000000E+00  0.00000000E+00
  0.00000000E+00  0.00000000E+00  0.00000000E+00  0.00000000E+00  0.00000000E+00
  0.00000000E+00  0.00000000E+00  0.00000000E+00  0.00000000E+00  0.00000000E+00
  0.00000000E+00  0.00000000E+00  0.00000000E+00  0.00000000E+00  0.00000000E+00
  0.00000000E+00  0.00000000E+00  0.00000000E+00  0.00000000E+00  0.00000000E+00
  0.00000000E+00  0.00000000E+00  0.00000000E+00  0.00000000E+00  0.00000000E+00
  0.00000000E+00  0.00000000E+00  0.00000000E+00  0.00000000E+00  1.00000000E+00
  0.00000000E+00  0.00000000E+00  0.00000000E+00  0.00000000E+00  0.00000000E+00
  0.00000000E+00  0.00000000E+00  0.00000000E+00  0.00000000E+00  0.00000000E+00
  0.00000000E+00
Coordinates of each shell                  R   N=         216
 -1.11708058E+00  3.20794599E+00 -1.18152223E-01 -1.11708058E+00  3.20794599E+00
 -1.18152223E-01 -1.11708058E+00  3.20794599E+00 -1.18152223E-01 -1.11708058E+00
  3.20794599E+00 -1.18152223E-01 -1.11708058E+00  3.20794599E+00 -1.18152223E-01
 -1.11708058E+00  3.20794599E+00 -1.18152223E-01 -2.06411884E-02  6.69051657E-01
  6.94790751E-01 -2.06411884E-02  6.69051657E-01  6.94790751E-01 -2.06411884E-02
  6.69051657E-01  6.94790751E-01 -2.06411884E-02  6.69051657E-01  6.94790751E-01
 -2.06411884E-02  6.69051657E-01  6.94790751E-01 -2.06411884E-02  6.69051657E-01
  6.94790751E-01  2.29697928E+00 -1.12115387E-01 -7.27491601E-01  2.29697928E+00
 -1.12115387E-01 -7.27491601E-01  2.29697928E+00 -1.12115387E-01 -7.27491601E-01
  2.29697928E+00 -1.12115387E-01 -7.27491601E-01  2.29697928E+00 -1.12115387E-01
 -7.27491601E-01  2.29697928E+00 -1.12115387E-01 -7.27491601E-01  4.52724433E+00
 -7.79029574E-01  2.40546418E-01  4.52724433E+00 -7.79029574E-01  2.40546418E-01
  4.52724433E+00 -7.79029574E-01  2.40546418E-01  4.52724433E+00 -7.79029574E-01
  2.40546418E-01  4.52724433E+00 -7.79029574E-01  2.40546418E-01  4.52724433E+00
 -7.79029574E-01  2.40546418E-01  4.88582384E+00 -8.37052936E-01  2.26660543E+00
  4.88582384E+00 -8.37052936E-01  2.26660543E+00  4.88582384E+00 -8.37052936E-01
  2.26660543E+00  4.88582384E+00 -8.37052936E-01  2.26660543E+00  4.88582384E+00
 -8.37052936E-01  2.26660543E+00 -2.86762030E+00  3.59538685E+00  9.01918928E-01
 -2.86762030E+00  3.59538685E+00  9.01918928E-01 -2.86762030E+00  3.59538685E+00
  9.01918928E-01 -2.86762030E+00  3.59538685E+00  9.01918928E-01 -2.86762030E+00
  3.59538685E+00  9.01918928E-01  6.08644368E+00 -1.29578539E+00 -9.94714357E-01
  6.08644368E+00 -1.29578539E+00 -9.94714357E-01  6.08644368E+00 -1.29578539E+00
 -9.94714357E-01  6.08644368E+00 -1.29578539E+00 -9.94714357E-01  6.08644368E+00
 -1.29578539E+00 -9.94714357E-01  2.05660707E+00 -1.11840434E-01 -2.77172758E+00
  2.05660707E+00 -1.11840434E-01 -2.77172758E+00  2.05660707E+00 -1.11840434E-01
 -2.77172758E+00  2.05660707E+00 -1.11840434E-01 -2.77172758E+00  2.05660707E+00
 -1.11840434E-01 -2.77172758E+00  2.51962956E-01  5.50940558E-01  2.73361574E+00
  2.51962956E-01  5.50940558E-01  2.73361574E+00  2.51962956E-01  5.50940558E-01
  2.73361574E+00  2.51962956E-01  5.50940558E-01  2.73361574E+00  2.51962956E-01
  5.50940558E-01  2.73361574E+00 -1.54780009E+00  3.17564028E+00 -2.14204282E+00
 -1.54780009E+00  3.17564028E+00 -2.14204282E+00 -1.54780009E+00  3.17564028E+00
 -2.14204282E+00 -1.54780009E+00  3.17564028E+00 -2.14204282E+00 -1.54780009E+00
  3.17564028E+00 -2.14204282E+00  2.27861661E-01  4.74375283E+00  2.51634433E-01
  2.27861661E-01  4.74375283E+00  2.51634433E-01  2.27861661E-01  4.74375283E+00
  2.51634433E-01  2.27861661E-01  4.74375283E+00  2.51634433E-01  2.27861661E-01
  4.74375283E+00  2.51634433E-01 -2.54189941E+00 -1.63153870E+00 -4.60852853E-02
 -2.54189941E+00 -1.63153870E+00 -4.60852853E-02 -2.54189941E+00 -1.63153870E+00
 -4.60852853E-02 -2.54189941E+00 -1.63153870E+00 -4.60852853E-02 -2.54189941E+00
 -1.63153870E+00 -4.60852853E-02 -2.54189941E+00 -1.63153870E+00 -4.60852853E-02
 -2.54189941E+00 -1.63153870E+00 -4.60852853E-02 -2.54189941E+00 -1.63153870E+00
 -4.60852853E-02 -2.54189941E+00 -1.63153870E+00 -4.60852853E-02 -2.54189941E+00
 -1.63153870E+00 -4.60852853E-02 -2.54189941E+00 -1.63153870E+00 -4.60852853E-02
 -2.54189941E+00 -1.63153870E+00 -4.60852853E-02 -2.54189941E+00 -1.63153870E+00
 -4.60852853E-02
Constraint Structure                       R   N=          36
 -1.11708058E+00  3.20794599E+00 -1.18152223E-01 -2.06411884E-02  6.69051657E-01
  6.94790751E-01  2.29697928E+00 -1.12115387E-01 -7.27491601E-01  4.52724433E+00
 -7.79029574E-01  2.40546418E-01  4.88582384E+00 -8.37052936E-01  2.26660543E+00
 -2.86762030E+00  3.59538685E+00  9.01918928E-01  6.08644368E+00 -1.29578539E+00
 -9.94714357E-01  2.05660707E+00 -1.11840434E-01 -2.77172758E+00  2.51962956E-01
  5.50940558E-01  2.73361574E+00 -1.54780009E+00  3.17564028E+00 -2.14204282E+00
  2.27861661E-01  4.74375283E+00  2.51634433E-01 -2.54189941E+00 -1.63153870E+00
 -4.60852853E-02
Num ILSW                                   I              100
ILSW                                       I   N=         100
           0           0           0           0           2           0
           0           0           0           0         402          -1
           5           0           0           0           0           0
           0           0           0           0           0           0
           1           0           0           0           0           0
           0           0      100000           0          -1           0
           0           0           0           0           0           0
           0           0           0           1           0           0
           0           0           1           0           0           0
           0           0           4          41           0           0
           0           0           5           0           0           0
           0           0           0           0           0           0
           0           0           0           0           0           0
           0           0           0           0           0           0
           0           0           0           0           0           0
           0           0           0           0           0           0
           0           0           0           0
Num RLSW                                   I               41
RLSW                                       R   N=          41
  8.00000000E-01  7.20000000E-01  1.00000000E+00  8.10000000E-01  2.00000000E-01
  0.00000000E+00  0.00000000E+00  1.00000000E+00  0.00000000E+00  0.00000000E+00
  0.00000000E+00  0.00000000E+00  1.00000000E+00  0.00000000E+00  0.00000000E+00
  0.00000000E+00  0.00000000E+00  1.00000000E+00  0.00000000E+00  0.00000000E+00
  0.00000000E+00  0.00000000E+00  1.00000000E+00  0.00000000E+00  0.00000000E+00
  0.00000000E+00  0.00000000E+00  1.00000000E+00  0.00000000E+00  0.00000000E+00
  0.00000000E+00  0.00000000E+00  0.00000000E+00  0.00000000E+00  0.00000000E+00
  0.00000000E+00  0.00000000E+00  0.00000000E+00  1.00000000E+00  1.00000000E+00
  0.00000000E+00
MxBond                                     I                4
NBond                                      I   N=          12
           4           4           3           3           1           1
           1           1           1           1           1           1
IBond                                      I   N=          48
           2           6          10          11           1           3
           9          12           2           4           8           0
           3           5           7           0           4           0
           0           0           1           0           0           0
           4           0           0           0           3           0
           0           0           2           0           0           0
           1           0           0           0           1           0
           0           0           2           0           0           0
RBond                                      R   N=          48
  1.00000000E+00  1.00000000E+00  1.00000000E+00  1.00000000E+00  1.00000000E+00
  1.00000000E+00  1.00000000E+00  1.00000000E+00  1.00000000E+00  2.00000000E+00
  1.00000000E+00  0.00000000E+00  2.00000000E+00  1.00000000E+00  1.00000000E+00
  0.00000000E+00  1.00000000E+00  0.00000000E+00  0.00000000E+00  0.00000000E+00
  1.00000000E+00  0.00000000E+00  0.00000000E+00  0.00000000E+00  1.00000000E+00
  0.00000000E+00  0.00000000E+00  0.00000000E+00  1.00000000E+00  0.00000000E+00
  0.00000000E+00  0.00000000E+00  1.00000000E+00  0.00000000E+00  0.00000000E+00
  0.00000000E+00  1.00000000E+00  0.00000000E+00  0.00000000E+00  0.00000000E+00
  1.00000000E+00  0.00000000E+00  0.00000000E+00  0.00000000E+00  1.00000000E+00
  0.00000000E+00  0.00000000E+00  0.00000000E+00
Virial Ratio                               R      2.003097175616348E+00
SCF Energy                                 R     -6.168941511536291E+02
Total Energy                               R     -6.168941511536291E+02
RMS Density                                R      5.509237746709340E-12
Nuclear derivative order                   I                0
External E-field                           R   N=          35
  0.00000000E+00  0.00000000E+00  0.00000000E+00  0.00000000E+00  0.00000000E+00
  0.00000000E+00  0.00000000E+00  0.00000000E+00  0.00000000E+00  0.00000000E+00
  0.00000000E+00  0.00000000E+00  0.00000000E+00  0.00000000E+00  0.00000000E+00
  0.00000000E+00  0.00000000E+00  0.00000000E+00  0.00000000E+00  0.00000000E+00
  0.00000000E+00  0.00000000E+00  0.00000000E+00  0.00000000E+00  0.00000000E+00
  0.00000000E+00  0.00000000E+00  0.00000000E+00  0.00000000E+00  0.00000000E+00
  0.00000000E+00  0.00000000E+00  0.00000000E+00  0.00000000E+00  0.00000000E+00
IOpCl                                      I                0
IROHF                                      I                0
Alpha Orbital Energies                     R   N=         167
 -1.01534055E+02 -1.02490859E+01 -1.01950060E+01 -1.01854465E+01 -1.01812437E+01
 -9.44874342E+00 -7.21307591E+00 -7.20365477E+00 -7.20343731E+00 -8.69568306E-01
 -7.85218681E-01 -7.39991132E-01 -6.41894574E-01 -5.76651006E-01 -4.85477853E-01
 -4.76634081E-01 -4.44275450E-01 -4.16698507E-01 -4.01467798E-01 -3.75327805E-01
 -3.65692560E-01 -3.07298111E-01 -2.98010906E-01 -2.79853225E-01 -3.35834044E-02
 -7.07117711E-03  6.12547637E-03  7.43377112E-03  2.24294540E-02  2.80472192E-02
  3.87916544E-02  4.02349866E-02  6.38700651E-02  6.63120737E-02  7.28409664E-02
  8.26051285E-02  8.71876846E-02  9.87896807E-02  1.10854333E-01  1.16460083E-01
  1.19582366E-01  1.21395804E-01  1.28921083E-01  1.31192689E-01  1.37104179E-01
  1.43349389E-01  1.49269183E-01  1.56857319E-01  1.59496328E-01  1.63042140E-01
  1.71939206E-01  1.87771396E-01  1.90748044E-01  2.15036955E-01  2.20822057E-01
  2.27091763E-01  2.49554931E-01  2.59560716E-01  2.73754652E-01  2.90204815E-01
  3.41854429E-01  3.57182811E-01  3.89722109E-01  4.23447442E-01  4.33098872E-01
  4.45105918E-01  4.63257062E-01  4.75144297E-01  4.90419027E-01  4.97401070E-01
  5.22286930E-01  5.27951616E-01  5.62261584E-01  5.85719717E-01  5.99825674E-01
  6.24703064E-01  6.32135507E-01  6.55107395E-01  6.63731861E-01  6.65912684E-01
  6.94103354E-01  7.04487630E-01  7.28893856E-01  7.34580366E-01  7.96898971E-01
  8.06736153E-01  8.27393813E-01  8.63376225E-01  8.93419056E-01  8.95408746E-01
  9.40504572E-01  9.62832982E-01  1.01555991E+00  1.04401774E+00  1.06128867E+00
  1.08263110E+00  1.12641576E+00  1.16876586E+00  1.19854283E+00  1.30307121E+00
  1.39070367E+00  1.43059672E+00  1.45187976E+00  1.46091732E+00  1.50640349E+00
  1.53010160E+00  1.55730453E+00  1.58385965E+00  1.58865546E+00  1.62756637E+00
  1.66875360E+00  1.69127000E+00  1.70051371E+00  1.73366581E+00  1.76814249E+00
  1.78706764E+00  1.87002461E+00  1.88071902E+00  1.92645949E+00  1.97845474E+00
  2.01685467E+00  2.06622448E+00  2.12639619E+00  2.17111967E+00  2.19098728E+00
  2.20112959E+00  2.24156386E+00  2.29181844E+00  2.31342122E+00  2.36546821E+00
  2.38372128E+00  2.45148879E+00  2.46191454E+00  2.48273414E+00  2.52740495E+00
  2.56181881E+00  2.57035654E+00  2.58963870E+00  2.60665237E+00  2.64913992E+00
  2.72545078E+00  2.73670413E+00  2.76203015E+00  2.78516556E+00  2.85906340E+00
  2.86598668E+00  2.92601172E+00  3.07198838E+00  3.09316487E+00  3.18684608E+00
  3.39219716E+00  3.50445319E+00  3.70786357E+00  3.78967451E+00  3.79308351E+00
  3.93734934E+00  4.10384298E+00  4.28359325E+00  9.76347470E+00  2.37190425E+01
  2.37852694E+01  2.39402278E+01  2.42396788E+01  2.59378972E+01  2.59853292E+01
  2.64588566E+01  2.15754701E+02
Alpha MO coefficients                      R   N=       27889
 -2.14038920E-08  1.26632111E-07  2.96542210E-06  8.53022667E-07  4.88339598E-07
 -7.88218428E-06 -1.96412947E-05  5.54291297E-06 -4.86743558E-06  4.78466695E-05
 -7.35609048E-05  4.60136301E-06 -3.29778195E-05 -1.79294484E-03  1.56030189E-04
  5.73279801E-04 -6.17979102E-05  3.58509144E-06 -3.58129635E-06  5.36415523E-06
  8.49985768E-06  3.65891359E-06  1.75392621E-06 -3.82550241E-06 -1.21595026E-05
 -1.14217333E-05 -7.44127110E-06 -8.44522477E-06  1.32956733E-05  1.45615499E-05
  2.82023225E-05  1.59108364E-04 -8.40996639E-05 -1.29286096E-04  5.83394453E-06
  4.90181641E-03  3.88868857E-04  3.64878786E-04 -1.20679246E-03  1.27931830E-05
 -2.81609316E-06 -3.31334829E-06 -1.25657762E-06 -5.66743949E-06 -4.87241827E-07
  1.42406314E-06 -3.23531226E-06 -2.45899190E-06  3.44114701E-06 -5.93595022E-06
  2.02240526E-05  1.03043920E-05 -2.33212329E-05 -2.87350525E-05 -2.79957565E-05
 -1.20891572E-05 -1.05242466E-05 -1.84942116E-03  1.60875524E-03 -4.60388273E-04
 -1.20240338E-04  7.68585700E-06  5.84995007E-06  6.88474736E-06  8.75848951E-07
  7.12083220E-06  2.99840695E-07 -8.93790153E-07  2.40529181E-06  9.04960046E-07
 -3.57263436E-07  7.41308957E-06 -1.19924486E-05 -2.96787964E-06 -2.47174829E-06
  6.81783043E-06  4.19596286E-05 -1.82527297E-06 -4.02786736E-05 -1.70580384E-03
  2.78891323E-04 -1.32765023E-04  2.67980848E-04 -4.47791750E-06 -1.53668540E-06
  2.43631542E-06 -7.97133484E-07  1.77004052E-06 -2.92683444E-06  2.71618142E-05
  2.07808833E-05 -6.28412202E-05 -6.30344208E-06 -8.56296665E-07 -4.73968188E-06
  1.37535518E-05 -9.72164584E-05  5.57572720E-05  2.47585359E-04 -8.08334096E-06
  1.46620521E-05  1.24177179E-05  1.86141923E-06 -1.43825809E-05 -2.26504596E-05
 -3.68953577E-05  1.38480906E-07 -4.05422778E-07 -1.41261674E-07  7.42032328E-06
 -5.37341259E-05  4.72297316E-06  5.79987819E-05  1.22863856E-05  1.56546871E-06
 -1.64221299E-05  5.07670067E-07 -7.74915669E-05 -8.43827377E-05  2.87177486E-04
  6.91106111E-06  3.02580525E-06  2.03153876E-05  9.64057166E-06 -6.50784603E-05
 -8.73358679E-05  7.41111464E-05  5.63931485E-06  1.41495225E-05 -1.49307289E-05
 -1.00800632E-05  5.03194304E-05 -1.44779488E-04 -3.48367454E-04  3.15820629E-07
 -5.62330921E-06  2.72586801E-07  4.11609542E-01  6.54075851E-01  1.50059862E-02