(R)-3-chloro-1-butene tau=120                                           
SP        RB3LYP                                                      6-311++G(d,p)       
Number of atoms                            I               12
Info1-9                                    I   N=           9
          26          26           0           0           0         110
           1          18        -502
Full Title                                 C   N=           3
(R)-3-chloro-1-butene tau=120       
Route                                      C   N=           7
#P B3LYP/6-311++G** scf(conver=11) int=ultrafine polar=optro
t cphf(rdfreq,conver=11)
Charge                                     I                0
Multiplicity                               I                1
Number of electrons                        I               48
Number of alpha electrons                  I               24
Number of beta electrons                   I               24
Number of basis functions                  I              167
Number of independent functions            I              167
Number of point charges in /Mol/           I                0
Number of translation vectors              I                0
Atomic numbers                             I   N=          12
           6           6           6           6           1           1
           1           1           1           1           1          17
Nuclear charges                            R   N=          12
  6.00000000E+00  6.00000000E+00  6.00000000E+00  6.00000000E+00  1.00000000E+00
  1.00000000E+00  1.00000000E+00  1.00000000E+00  1.00000000E+00  1.00000000E+00
  1.00000000E+00  1.70000000E+01
Current cartesian coordinates              R   N=          36
  8.85822258E-01  3.31458667E+00  7.54157574E-02  1.11519920E-02  6.61610788E-01
 -6.12949981E-01 -2.27845896E+00 -1.82894876E-01  8.06651426E-01 -4.40790677E+00
 -9.40973538E-01 -2.94638540E-01 -4.58854605E+00 -1.04231785E+00 -2.33577286E+00
  2.59508227E+00  3.82027774E+00 -9.61217286E-01 -6.04413928E+00 -1.49097362E+00
  8.07416992E-01 -2.13263368E+00 -1.15625426E-01  2.85526518E+00 -2.93755679E-01
  4.87233361E-01 -2.64155464E+00  1.27649727E+00  3.46113370E+00  2.09686759E+00
 -6.03669083E-01  4.66706935E+00 -4.02973723E-01  2.61926549E+00 -1.58239833E+00
  4.32409779E-02
Number of symbols in /Mol/                 I                0
Force Field                                I                0
Atom Types                                 C   N=          12
                                                            
                                                            
                        
Int Atom Types                             I   N=          12
           0           0           0           0           0           0
           0           0           0           0           0           0
MM charges                                 R   N=          12
  0.00000000E+00  0.00000000E+00  0.00000000E+00  0.00000000E+00  0.00000000E+00
  0.00000000E+00  0.00000000E+00  0.00000000E+00  0.00000000E+00  0.00000000E+00
  0.00000000E+00  0.00000000E+00
Integer atomic weights                     I   N=          12
          12          12          12          12           1           1
           1           1           1           1           1          35
Real atomic weights                        R   N=          12
  1.20000000E+01  1.20000000E+01  1.20000000E+01  1.20000000E+01  1.00782504E+00
  1.00782504E+00  1.00782504E+00  1.00782504E+00  1.00782504E+00  1.00782504E+00
  1.00782504E+00  3.49688527E+01
Atom fragment info                         I   N=          12
           0           0           0           0           0           0
           0           0           0           0           0           0
Atom residue num                           I   N=          12
           0           0           0           0           0           0
           0           0           0           0           0           0
Nuclear spins                              I   N=          12
           0           0           0           0           1           1
           1           1           1           1           1           3
Nuclear ZEff                               R   N=          12
 -3.60000000E+00 -3.60000000E+00 -3.60000000E+00 -3.60000000E+00 -1.00000000E+00
 -1.00000000E+00 -1.00000000E+00 -1.00000000E+00 -1.00000000E+00 -1.00000000E+00
 -1.00000000E+00 -1.42400000E+01
Nuclear ZNuc                               R   N=          12
  6.00000000E+00  6.00000000E+00  6.00000000E+00  6.00000000E+00  1.00000000E+00
  1.00000000E+00  1.00000000E+00  1.00000000E+00  1.00000000E+00  1.00000000E+00
  1.00000000E+00  1.70000000E+01
Nuclear QMom                               R   N=          12
  0.00000000E+00  0.00000000E+00  0.00000000E+00  0.00000000E+00  0.00000000E+00
  0.00000000E+00  0.00000000E+00  0.00000000E+00  0.00000000E+00  0.00000000E+00
  0.00000000E+00 -8.16500000E+00
Nuclear GFac                               R   N=          12
  0.00000000E+00  0.00000000E+00  0.00000000E+00  0.00000000E+00  2.79284600E+00
  2.79284600E+00  2.79284600E+00  2.79284600E+00  2.79284600E+00  2.79284600E+00
  2.79284600E+00  8.21874000E-01
MicOpt                                     I   N=          12
          -1          -1          -1          -1          -1          -1
          -1          -1          -1          -1          -1          -1
Number of residues                         I                0
Number of secondary structures             I                0
SymInf integers                            I   N=          26
           1           1           1           1           1           0
           0           0           0           0           0           0
           0           0           0           0           0           0
           0           0           0           0           0           0
           0           0
RotTr to input orientation                 R   N=          12
  1.00000000E+00 -2.59074061E-09  0.00000000E+00  2.59074061E-09  1.00000000E+00
  0.00000000E+00  0.00000000E+00  0.00000000E+00  1.00000000E+00  4.72431538E-09
 -1.57477194E-09 -2.75585061E-09
Number of contracted shells                I               72
Number of primitive shells                 I              126
Pure/Cartesian d shells                    I                0
Pure/Cartesian f shells                    I                0
Highest angular momentum                   I                2
Largest degree of contraction              I                6
Shell types                                I   N=          72
           0          -1          -1          -1          -1          -2
           0          -1          -1          -1          -1          -2
           0          -1          -1          -1          -1          -2
           0          -1          -1          -1          -1          -2
           0           0           0           0           1           0
           0           0           0           1           0           0
           0           0           1           0           0           0
           0           1           0           0           0           0
           1           0           0           0           0           1
           0           0           0           0           1           0
           0           0           0           0           0          -1
           1           1           1           1           1          -2
Number of primitives per shell             I   N=          72
           6           3           1           1           1           1
           6           3           1           1           1           1
           6           3           1           1           1           1
           6           3           1           1           1           1
           3           1           1           1           1           3
           1           1           1           1           3           1
           1           1           1           3           1           1
           1           1           3           1           1           1
           1           3           1           1           1           1
           3           1           1           1           1           6
           3           1           1           1           1           1
           5           2           1           1           1           1
Shell to atom map                          I   N=          72
           1           1           1           1           1           1
           2           2           2           2           2           2
           3           3           3           3           3           3
           4           4           4           4           4           4
           5           5           5           5           5           6
           6           6           6           6           7           7
           7           7           7           8           8           8
           8           8           9           9           9           9
           9          10          10          10          10          10
          11          11          11          11          11          12
          12          12          12          12          12          12
          12          12          12          12          12          12
Primitive exponents                        R   N=         126
  4.56324000E+03  6.82024000E+02  1.54973000E+02  4.44553000E+01  1.30290000E+01
  1.82773000E+00  2.09642000E+01  4.80331000E+00  1.45933000E+00  4.83456000E-01
  1.45585000E-01  4.38000000E-02  6.26000000E-01  4.56324000E+03  6.82024000E+02
  1.54973000E+02  4.44553000E+01  1.30290000E+01  1.82773000E+00  2.09642000E+01
  4.80331000E+00  1.45933000E+00  4.83456000E-01  1.45585000E-01  4.38000000E-02
  6.26000000E-01  4.56324000E+03  6.82024000E+02  1.54973000E+02  4.44553000E+01
  1.30290000E+01  1.82773000E+00  2.09642000E+01  4.80331000E+00  1.45933000E+00
  4.83456000E-01  1.45585000E-01  4.38000000E-02  6.26000000E-01  4.56324000E+03
  6.82024000E+02  1.54973000E+02  4.44553000E+01  1.30290000E+01  1.82773000E+00
  2.09642000E+01  4.80331000E+00  1.45933000E+00  4.83456000E-01  1.45585000E-01
  4.38000000E-02  6.26000000E-01  3.38650000E+01  5.09479000E+00  1.15879000E+00
  3.25840000E-01  1.02741000E-01  3.60000000E-02  7.50000000E-01  3.38650000E+01
  5.09479000E+00  1.15879000E+00  3.25840000E-01  1.02741000E-01  3.60000000E-02
  7.50000000E-01  3.38650000E+01  5.09479000E+00  1.15879000E+00  3.25840000E-01
  1.02741000E-01  3.60000000E-02  7.50000000E-01  3.38650000E+01  5.09479000E+00
  1.15879000E+00  3.25840000E-01  1.02741000E-01  3.60000000E-02  7.50000000E-01
  3.38650000E+01  5.09479000E+00  1.15879000E+00  3.25840000E-01  1.02741000E-01
  3.60000000E-02  7.50000000E-01  3.38650000E+01  5.09479000E+00  1.15879000E+00
  3.25840000E-01  1.02741000E-01  3.60000000E-02  7.50000000E-01  3.38650000E+01
  5.09479000E+00  1.15879000E+00  3.25840000E-01  1.02741000E-01  3.60000000E-02
  7.50000000E-01  1.05819000E+05  1.58720000E+04  3.61965000E+03  1.03080000E+03
  3.39908000E+02  1.24538000E+02  1.24538000E+02  4.95135000E+01  2.08056000E+01
  6.58346000E+00  2.56468000E+00  5.59763000E-01  1.83273000E-01  4.83000000E-02
  5.89776000E+02  1.39849000E+02  4.51413000E+01  1.68733000E+01  2.77152000E+00
  6.74110000E+00  2.77152000E+00  1.02387000E+00  3.81368000E-01  1.09437000E-01
  7.50000000E-01
Contraction coefficients                   R   N=         126
  1.96665025E-03  1.52306019E-02  7.61269097E-02  2.60801033E-01  6.16462078E-01
  2.21006028E-01  1.14660081E-01  9.19999648E-01 -3.03068213E-03  1.00000000E+00
  1.00000000E+00  1.00000000E+00  1.00000000E+00  1.96665025E-03  1.52306019E-02
  7.61269097E-02  2.60801033E-01  6.16462078E-01  2.21006028E-01  1.14660081E-01
  9.19999648E-01 -3.03068213E-03  1.00000000E+00  1.00000000E+00  1.00000000E+00
  1.00000000E+00  1.96665025E-03  1.52306019E-02  7.61269097E-02  2.60801033E-01
  6.16462078E-01  2.21006028E-01  1.14660081E-01  9.19999648E-01 -3.03068213E-03
  1.00000000E+00  1.00000000E+00  1.00000000E+00  1.00000000E+00  1.96665025E-03
  1.52306019E-02  7.61269097E-02  2.60801033E-01  6.16462078E-01  2.21006028E-01
  1.14660081E-01  9.19999648E-01 -3.03068213E-03  1.00000000E+00  1.00000000E+00
  1.00000000E+00  1.00000000E+00  2.54938145E-02  1.90373109E-01  8.52161486E-01
  1.00000000E+00  1.00000000E+00  1.00000000E+00  1.00000000E+00  2.54938145E-02
  1.90373109E-01  8.52161486E-01  1.00000000E+00  1.00000000E+00  1.00000000E+00
  1.00000000E+00  2.54938145E-02  1.90373109E-01  8.52161486E-01  1.00000000E+00
  1.00000000E+00  1.00000000E+00  1.00000000E+00  2.54938145E-02  1.90373109E-01
  8.52161486E-01  1.00000000E+00  1.00000000E+00  1.00000000E+00  1.00000000E+00
  2.54938145E-02  1.90373109E-01  8.52161486E-01  1.00000000E+00  1.00000000E+00
  1.00000000E+00  1.00000000E+00  2.54938145E-02  1.90373109E-01  8.52161486E-01
  1.00000000E+00  1.00000000E+00  1.00000000E+00  1.00000000E+00  2.54938145E-02
  1.90373109E-01  8.52161486E-01  1.00000000E+00  1.00000000E+00  1.00000000E+00
  1.00000000E+00  7.38000247E-04  5.71800191E-03  2.94950099E-02  1.17286039E-01
  3.62949121E-01  5.84149195E-01  1.34176973E-01  6.24249876E-01  2.91755942E-01
  1.00000000E+00  1.00000000E+00  1.00000000E+00  1.00000000E+00  1.00000000E+00
  3.66556935E-03  2.83679194E-02  1.24756603E-01  3.39654631E-01  7.47585963E-01
 -1.57224381E+00  9.92388882E-01  1.00000000E+00  1.00000000E+00  1.00000000E+00
  1.00000000E+00
P(S=P) Contraction coefficients            R   N=         126
  0.00000000E+00  0.00000000E+00  0.00000000E+00  0.00000000E+00  0.00000000E+00
  0.00000000E+00  4.02486927E-02  2.37593957E-01  8.15853851E-01  1.00000000E+00
  1.00000000E+00  1.00000000E+00  0.00000000E+00  0.00000000E+00  0.00000000E+00
  0.00000000E+00  0.00000000E+00  0.00000000E+00  0.00000000E+00  4.02486927E-02
  2.37593957E-01  8.15853851E-01  1.00000000E+00  1.00000000E+00  1.00000000E+00
  0.00000000E+00  0.00000000E+00  0.00000000E+00  0.00000000E+00  0.00000000E+00
  0.00000000E+00  0.00000000E+00  4.02486927E-02  2.37593957E-01  8.15853851E-01
  1.00000000E+00  1.00000000E+00  1.00000000E+00  0.00000000E+00  0.00000000E+00
  0.00000000E+00  0.00000000E+00  0.00000000E+00  0.00000000E+00  0.00000000E+00
  4.02486927E-02  2.37593957E-01  8.15853851E-01  1.00000000E+00  1.00000000E+00
  1.00000000E+00  0.00000000E+00  0.00000000E+00  0.00000000E+00  0.00000000E+00
  0.00000000E+00  0.00000000E+00  0.00000000E+00  0.00000000E+00  0.00000000E+00
  0.00000000E+00  0.00000000E+00  0.00000000E+00  0.00000000E+00  0.00000000E+00
  0.00000000E+00  0.00000000E+00  0.00000000E+00  0.00000000E+00  0.00000000E+00
  0.00000000E+00  0.00000000E+00  0.00000000E+00  0.00000000E+00  0.00000000E+00
  0.00000000E+00  0.00000000E+00  0.00000000E+00  0.00000000E+00  0.00000000E+00
  0.00000000E+00  0.00000000E+00  0.00000000E+00  0.00000000E+00  0.00000000E+00
  0.00000000E+00  0.00000000E+00  0.00000000E+00  0.00000000E+00  0.00000000E+00
  0.00000000E+00  0.00000000E+00  0.00000000E+00  0.00000000E+00  0.00000000E+00
  0.00000000E+00  0.00000000E+00  0.00000000E+00  0.00000000E+00  0.00000000E+00
  0.00000000E+00  0.00000000E+00  0.00000000E+00  0.00000000E+00  0.00000000E+00
  0.00000000E+00  0.00000000E+00  0.00000000E+00  0.00000000E+00  0.00000000E+00
  0.00000000E+00  0.00000000E+00  0.00000000E+00  0.00000000E+00  1.00000000E+00
  0.00000000E+00  0.00000000E+00  0.00000000E+00  0.00000000E+00  0.00000000E+00
  0.00000000E+00  0.00000000E+00  0.00000000E+00  0.00000000E+00  0.00000000E+00
  0.00000000E+00
Coordinates of each shell                  R   N=         216
  8.85822245E-01  3.31458667E+00  7.54157602E-02  8.85822245E-01  3.31458667E+00
  7.54157602E-02  8.85822245E-01  3.31458667E+00  7.54157602E-02  8.85822245E-01
  3.31458667E+00  7.54157602E-02  8.85822245E-01  3.31458667E+00  7.54157602E-02
  8.85822245E-01  3.31458667E+00  7.54157602E-02  1.11519856E-02  6.61610790E-01
 -6.12949978E-01  1.11519856E-02  6.61610790E-01 -6.12949978E-01  1.11519856E-02
  6.61610790E-01 -6.12949978E-01  1.11519856E-02  6.61610790E-01 -6.12949978E-01
  1.11519856E-02  6.61610790E-01 -6.12949978E-01  1.11519856E-02  6.61610790E-01
 -6.12949978E-01 -2.27845896E+00 -1.82894880E-01  8.06651429E-01 -2.27845896E+00
 -1.82894880E-01  8.06651429E-01 -2.27845896E+00 -1.82894880E-01  8.06651429E-01
 -2.27845896E+00 -1.82894880E-01  8.06651429E-01 -2.27845896E+00 -1.82894880E-01
  8.06651429E-01 -2.27845896E+00 -1.82894880E-01  8.06651429E-01 -4.40790677E+00
 -9.40973547E-01 -2.94638537E-01 -4.40790677E+00 -9.40973547E-01 -2.94638537E-01
 -4.40790677E+00 -9.40973547E-01 -2.94638537E-01 -4.40790677E+00 -9.40973547E-01
 -2.94638537E-01 -4.40790677E+00 -9.40973547E-01 -2.94638537E-01 -4.40790677E+00
 -9.40973547E-01 -2.94638537E-01 -4.58854605E+00 -1.04231786E+00 -2.33577285E+00
 -4.58854605E+00 -1.04231786E+00 -2.33577285E+00 -4.58854605E+00 -1.04231786E+00
 -2.33577285E+00 -4.58854605E+00 -1.04231786E+00 -2.33577285E+00 -4.58854605E+00
 -1.04231786E+00 -2.33577285E+00  2.59508225E+00  3.82027775E+00 -9.61217283E-01
  2.59508225E+00  3.82027775E+00 -9.61217283E-01  2.59508225E+00  3.82027775E+00
 -9.61217283E-01  2.59508225E+00  3.82027775E+00 -9.61217283E-01  2.59508225E+00
  3.82027775E+00 -9.61217283E-01 -6.04413928E+00 -1.49097364E+00  8.07416995E-01
 -6.04413928E+00 -1.49097364E+00  8.07416995E-01 -6.04413928E+00 -1.49097364E+00
  8.07416995E-01 -6.04413928E+00 -1.49097364E+00  8.07416995E-01 -6.04413928E+00
 -1.49097364E+00  8.07416995E-01 -2.13263369E+00 -1.15625430E-01  2.85526519E+00
 -2.13263369E+00 -1.15625430E-01  2.85526519E+00 -2.13263369E+00 -1.15625430E-01
  2.85526519E+00 -2.13263369E+00 -1.15625430E-01  2.85526519E+00 -2.13263369E+00
 -1.15625430E-01  2.85526519E+00 -2.93755685E-01  4.87233362E-01 -2.64155464E+00
 -2.93755685E-01  4.87233362E-01 -2.64155464E+00 -2.93755685E-01  4.87233362E-01
 -2.64155464E+00 -2.93755685E-01  4.87233362E-01 -2.64155464E+00 -2.93755685E-01
  4.87233362E-01 -2.64155464E+00  1.27649725E+00  3.46113371E+00  2.09686760E+00
  1.27649725E+00  3.46113371E+00  2.09686760E+00  1.27649725E+00  3.46113371E+00
  2.09686760E+00  1.27649725E+00  3.46113371E+00  2.09686760E+00  1.27649725E+00
  3.46113371E+00  2.09686760E+00 -6.03669099E-01  4.66706935E+00 -4.02973720E-01
 -6.03669099E-01  4.66706935E+00 -4.02973720E-01 -6.03669099E-01  4.66706935E+00
 -4.02973720E-01 -6.03669099E-01  4.66706935E+00 -4.02973720E-01 -6.03669099E-01
  4.66706935E+00 -4.02973720E-01  2.61926549E+00 -1.58239832E+00  4.32409807E-02
  2.61926549E+00 -1.58239832E+00  4.32409807E-02  2.61926549E+00 -1.58239832E+00
  4.32409807E-02  2.61926549E+00 -1.58239832E+00  4.32409807E-02  2.61926549E+00
 -1.58239832E+00  4.32409807E-02  2.61926549E+00 -1.58239832E+00  4.32409807E-02
  2.61926549E+00 -1.58239832E+00  4.32409807E-02  2.61926549E+00 -1.58239832E+00
  4.32409807E-02  2.61926549E+00 -1.58239832E+00  4.32409807E-02  2.61926549E+00
 -1.58239832E+00  4.32409807E-02  2.61926549E+00 -1.58239832E+00  4.32409807E-02
  2.61926549E+00 -1.58239832E+00  4.32409807E-02  2.61926549E+00 -1.58239832E+00
  4.32409807E-02
Constraint Structure                       R   N=          36
  8.85822245E-01  3.31458667E+00  7.54157602E-02  1.11519856E-02  6.61610790E-01
 -6.12949978E-01 -2.27845896E+00 -1.82894880E-01  8.06651429E-01 -4.40790677E+00
 -9.40973547E-01 -2.94638537E-01 -4.58854605E+00 -1.04231786E+00 -2.33577285E+00
  2.59508225E+00  3.82027775E+00 -9.61217283E-01 -6.04413928E+00 -1.49097364E+00
  8.07416995E-01 -2.13263369E+00 -1.15625430E-01  2.85526519E+00 -2.93755685E-01
  4.87233362E-01 -2.64155464E+00  1.27649725E+00  3.46113371E+00  2.09686760E+00
 -6.03669099E-01  4.66706935E+00 -4.02973720E-01  2.61926549E+00 -1.58239832E+00
  4.32409807E-02
Num ILSW                                   I              100
ILSW                                       I   N=         100
           0           0           0           0           2           0
           0           0           0           0         402          -1
           5           0           0           0           0           0
           0           0           0           0           0           0
           1           0           0           0           0           0
           0           0      100000           0          -1           0
           0           0           0           0           0           0
           0           0           0           1           0           0
           0           0           1           0           0           0
           0           0           4          41           0           0
           0           0           5           0           0           0
           0           0           0           0           0           0
           0           0           0           0           0           0
           0           0           0           0           0           0
           0           0           0           0           0           0
           0           0           0           0           0           0
           0           0           0           0
Num RLSW                                   I               41
RLSW                                       R   N=          41
  8.00000000E-01  7.20000000E-01  1.00000000E+00  8.10000000E-01  2.00000000E-01
  0.00000000E+00  0.00000000E+00  1.00000000E+00  0.00000000E+00  0.00000000E+00
  0.00000000E+00  0.00000000E+00  1.00000000E+00  0.00000000E+00  0.00000000E+00
  0.00000000E+00  0.00000000E+00  1.00000000E+00  0.00000000E+00  0.00000000E+00
  0.00000000E+00  0.00000000E+00  1.00000000E+00  0.00000000E+00  0.00000000E+00
  0.00000000E+00  0.00000000E+00  1.00000000E+00  0.00000000E+00  0.00000000E+00
  0.00000000E+00  0.00000000E+00  0.00000000E+00  0.00000000E+00  0.00000000E+00
  0.00000000E+00  0.00000000E+00  0.00000000E+00  1.00000000E+00  1.00000000E+00
  0.00000000E+00
MxBond                                     I                4
NBond                                      I   N=          12
           4           4           3           3           1           1
           1           1           1           1           1           1
IBond                                      I   N=          48
           2           6          10          11           1           3
           9          12           2           4           8           0
           3           5           7           0           4           0
           0           0           1           0           0           0
           4           0           0           0           3           0
           0           0           2           0           0           0
           1           0           0           0           1           0
           0           0           2           0           0           0
RBond                                      R   N=          48
  1.00000000E+00  1.00000000E+00  1.00000000E+00  1.00000000E+00  1.00000000E+00
  1.00000000E+00  1.00000000E+00  1.00000000E+00  1.00000000E+00  2.00000000E+00
  1.00000000E+00  0.00000000E+00  2.00000000E+00  1.00000000E+00  1.00000000E+00
  0.00000000E+00  1.00000000E+00  0.00000000E+00  0.00000000E+00  0.00000000E+00
  1.00000000E+00  0.00000000E+00  0.00000000E+00  0.00000000E+00  1.00000000E+00
  0.00000000E+00  0.00000000E+00  0.00000000E+00  1.00000000E+00  0.00000000E+00
  0.00000000E+00  0.00000000E+00  1.00000000E+00  0.00000000E+00  0.00000000E+00
  0.00000000E+00  1.00000000E+00  0.00000000E+00  0.00000000E+00  0.00000000E+00
  1.00000000E+00  0.00000000E+00  0.00000000E+00  0.00000000E+00  1.00000000E+00
  0.00000000E+00  0.00000000E+00  0.00000000E+00
Virial Ratio                               R      2.003055334172607E+00
SCF Energy                                 R     -6.168957651140831E+02
Total Energy                               R     -6.168957651140831E+02
RMS Density                                R      5.410174903782180E-12
Nuclear derivative order                   I                0
External E-field                           R   N=          35
  0.00000000E+00  0.00000000E+00  0.00000000E+00  0.00000000E+00  0.00000000E+00
  0.00000000E+00  0.00000000E+00  0.00000000E+00  0.00000000E+00  0.00000000E+00
  0.00000000E+00  0.00000000E+00  0.00000000E+00  0.00000000E+00  0.00000000E+00
  0.00000000E+00  0.00000000E+00  0.00000000E+00  0.00000000E+00  0.00000000E+00
  0.00000000E+00  0.00000000E+00  0.00000000E+00  0.00000000E+00  0.00000000E+00
  0.00000000E+00  0.00000000E+00  0.00000000E+00  0.00000000E+00  0.00000000E+00
  0.00000000E+00  0.00000000E+00  0.00000000E+00  0.00000000E+00  0.00000000E+00
IOpCl                                      I                0
IROHF                                      I                0
Alpha Orbital Energies                     R   N=         167
 -1.01534090E+02 -1.02474505E+01 -1.01939784E+01 -1.01839974E+01 -1.01813053E+01
 -9.44851578E+00 -7.21285434E+00 -7.20343356E+00 -7.20327156E+00 -8.67543180E-01
 -7.87061746E-01 -7.42384874E-01 -6.39983822E-01 -5.77893930E-01 -4.85717369E-01
 -4.76124496E-01 -4.45190428E-01 -4.16462530E-01 -4.03307653E-01 -3.75576555E-01
 -3.66733073E-01 -3.06110449E-01 -2.98567096E-01 -2.80502356E-01 -3.26936938E-02
 -7.57455611E-03  6.34285516E-03  7.27722625E-03  2.19457964E-02  2.84120428E-02
  3.86863275E-02  4.10929813E-02  6.38184864E-02  6.48026880E-02  7.27377640E-02
  8.33346837E-02  8.76498537E-02  9.88538183E-02  1.10927516E-01  1.15702385E-01
  1.18493567E-01  1.21939281E-01  1.29111821E-01  1.30708142E-01  1.35323412E-01
  1.41803162E-01  1.50304493E-01  1.56749791E-01  1.60752525E-01  1.64540030E-01
  1.71870941E-01  1.88064324E-01  1.91520367E-01  2.14195332E-01  2.19797346E-01
  2.26467043E-01  2.46859953E-01  2.61042356E-01  2.70970980E-01  2.91926504E-01
  3.41378953E-01  3.56640968E-01  3.90484843E-01  4.25606441E-01  4.30529947E-01
  4.47294859E-01  4.58046347E-01  4.78597691E-01  4.87978409E-01  4.95625552E-01
  5.24575231E-01  5.28421219E-01  5.66872181E-01  5.87995239E-01  5.98341707E-01
  6.23728954E-01  6.36377993E-01  6.47978575E-01  6.57411080E-01  6.62160039E-01
  6.91042271E-01  7.06352387E-01  7.36580983E-01  7.38307061E-01  7.86276847E-01
  8.16073273E-01  8.31129153E-01  8.62869911E-01  8.91551652E-01  9.02553203E-01
  9.43437019E-01  9.59935761E-01  1.00527648E+00  1.03142466E+00  1.06486718E+00
  1.08349729E+00  1.12624652E+00  1.17527064E+00  1.19804358E+00  1.29196556E+00
  1.39317328E+00  1.42952047E+00  1.45108362E+00  1.46897576E+00  1.50640814E+00
  1.54251810E+00  1.56105040E+00  1.58549194E+00  1.59688622E+00  1.62726457E+00
  1.66779317E+00  1.69284573E+00  1.69912138E+00  1.72542629E+00  1.77204864E+00
  1.78751774E+00  1.87267455E+00  1.88424489E+00  1.93580143E+00  1.98544821E+00
  2.01755710E+00  2.07237512E+00  2.11912165E+00  2.17883951E+00  2.19218574E+00
  2.20194978E+00  2.25230633E+00  2.29846538E+00  2.30861698E+00  2.35741862E+00
  2.37499941E+00  2.45727925E+00  2.46270058E+00  2.49426448E+00  2.52569611E+00
  2.56329948E+00  2.57604397E+00  2.58883746E+00  2.60313770E+00  2.64149190E+00
  2.73036657E+00  2.73602111E+00  2.74924990E+00  2.78168976E+00  2.85383651E+00
  2.86256298E+00  2.93088254E+00  3.08117543E+00  3.09068026E+00  3.18455633E+00
  3.40228025E+00  3.50796401E+00  3.71768808E+00  3.79487033E+00  3.79656734E+00
  3.94888372E+00  4.11755013E+00  4.28800850E+00  9.75604868E+00  2.37216587E+01
  2.37915850E+01  2.39453329E+01  2.42550363E+01  2.59307147E+01  2.59739863E+01
  2.64456739E+01  2.15745881E+02
Alpha MO coefficients                      R   N=       27889
  1.84913820E-07 -3.98050028E-07 -2.67424504E-06 -2.11832811E-06 -1.28563089E-06
  4.26330409E-07  1.98504408E-05  1.51515310E-05  9.37517259E-06  1.41788150E-05
  3.69519814E-05  2.95897166E-05  2.25322006E-05 -1.67167461E-03 -1.51605457E-04
  5.06207530E-04  3.78138895E-05  7.57292693E-06 -3.23889674E-06 -4.66143021E-06
  1.30374679E-05  4.40087367E-07  1.47790408E-06 -3.06362082E-06  1.21643798E-05
 -1.19180121E-05  5.28062016E-06 -1.54795838E-05 -1.38867719E-05  1.92307416E-05
 -1.92218527E-05  1.72528326E-04  1.28129907E-04 -1.21234925E-04 -7.26041756E-06
  3.72979887E-03 -4.75998110E-04  4.59033163E-04  8.28653893E-04  9.55104973E-06
 -1.42135364E-06  3.32224996E-06 -2.58265411E-06  7.82087408E-06 -5.93793646E-07
  1.73551674E-06  4.09234681E-06 -2.54809067E-06 -4.23268987E-06 -8.25051749E-06
 -2.42407332E-05  9.76748263E-06  2.54912978E-05  2.19675957E-05  1.33152348E-05
 -1.05165088E-05 -6.09383156E-05 -1.09355470E-03 -1.21857140E-03 -3.87868462E-04
 -1.07934238E-04  6.56543395E-06  5.95694645E-06 -5.87822822E-06  8.65332471E-07
 -4.23695893E-06  3.33070956E-07 -9.86822193E-07 -1.79327742E-06  6.41475453E-07
  7.00853638E-07  1.00302778E-05  8.47847449E-06 -2.35878144E-06  1.50828026E-06
 -5.78365794E-05 -8.62187397E-05 -2.02993246E-05  6.16097506E-05 -1.69471536E-03
 -3.44145686E-04 -1.81906647E-04 -1.24940432E-04 -4.98402127E-06 -1.86746243E-06
 -3.57265753E-06 -1.81783341E-06 -1.68923714E-06 -3.06246718E-06  3.47343829E-05
  6.03254085E-05  4.79599318E-05  6.72000956E-06 -3.43286628E-08  6.35244391E-06
  1.23094015E-05 -8.39849212E-05  7.89597718E-05  2.26849215E-04  8.21901407E-06
  1.32324750E-05 -1.11210807E-05  2.30578371E-06 -2.12249856E-05 -5.14413747E-05
 -1.30344385E-04 -9.35671642E-07 -2.56587299E-07  1.23820864E-06  5.81669187E-06
 -3.54262726E-05  6.24882213E-05  1.46447884E-04 -1.09925154E-05  1.90528749E-06
  1.36383627E-05 -1.23458081E-06 -6.11894705E-05 -1.18496356E-04  1.21450064E-04
 -6.58317552E-06  1.97169295E-06 -1.59613360E-05  1.01695334E-05 -6.39009323E-05
 -1.82692119E-05  7.76911198E-05 -4.65551812E-06  1.23907283E-05  1.53351370E-05
 -7.83731596E-06  3.92485576E-05 -1.37447555E-04 -3.09788682E-04  5.02517980E-07
 -5.11545609E-06 -6.12891790E-07  4.11609656E-01  6.54076183E-01  1.50039151E-02