 Entering Gaussian System, Link 0=g09
 Input=input.dat
 Output=output.dat
 Initial command:
 /cerebro/home/software/apps/g09/l1.exe /scratch/crawdad/Gau-27889.inp -scrdir=/scratch/crawdad/
 Entering Link 1 = /cerebro/home/software/apps/g09/l1.exe PID=     27891.
  
 Copyright (c) 1988,1990,1992,1993,1995,1998,2003,2009, Gaussian, Inc.
                  All Rights Reserved.
  
 This is part of the Gaussian(R) 09 program.  It is based on
 the Gaussian(R) 03 system (copyright 2003, Gaussian, Inc.),
 the Gaussian(R) 98 system (copyright 1998, Gaussian, Inc.),
 the Gaussian(R) 94 system (copyright 1995, Gaussian, Inc.),
 the Gaussian 92(TM) system (copyright 1992, Gaussian, Inc.),
 the Gaussian 90(TM) system (copyright 1990, Gaussian, Inc.),
 the Gaussian 88(TM) system (copyright 1988, Gaussian, Inc.),
 the Gaussian 86(TM) system (copyright 1986, Carnegie Mellon
 University), and the Gaussian 82(TM) system (copyright 1983,
 Carnegie Mellon University). Gaussian is a federally registered
 trademark of Gaussian, Inc.
  
 This software contains proprietary and confidential information,
 including trade secrets, belonging to Gaussian, Inc.
  
 This software is provided under written license and may be
 used, copied, transmitted, or stored only in accord with that
 written license.
  
 The following legend is applicable only to US Government
 contracts under FAR:
  
                    RESTRICTED RIGHTS LEGEND
  
 Use, reproduction and disclosure by the US Government is
 subject to restrictions as set forth in subparagraphs (a)
 and (c) of the Commercial Computer Software - Restricted
 Rights clause in FAR 52.227-19.
  
 Gaussian, Inc.
 340 Quinnipiac St., Bldg. 40, Wallingford CT 06492
  
  
 ---------------------------------------------------------------
 Warning -- This program may not be used in any manner that
 competes with the business of Gaussian, Inc. or will provide
 assistance to any competitor of Gaussian, Inc.  The licensee
 of this program is prohibited from giving any competitor of
 Gaussian, Inc. access to this program.  By using this program,
 the user acknowledges that Gaussian, Inc. is engaged in the
 business of creating and licensing software in the field of
 computational chemistry and represents and warrants to the
 licensee that it is not a competitor of Gaussian, Inc. and that
 it will not use this program in any manner prohibited above.
 ---------------------------------------------------------------
  

 Cite this work as:
 Gaussian 09, Revision A.02,
 M. J. Frisch, G. W. Trucks, H. B. Schlegel, G. E. Scuseria, 
 M. A. Robb, J. R. Cheeseman, G. Scalmani, V. Barone, B. Mennucci, 
 G. A. Petersson, H. Nakatsuji, M. Caricato, X. Li, H. P. Hratchian, 
 A. F. Izmaylov, J. Bloino, G. Zheng, J. L. Sonnenberg, M. Hada, 
 M. Ehara, K. Toyota, R. Fukuda, J. Hasegawa, M. Ishida, T. Nakajima, 
 Y. Honda, O. Kitao, H. Nakai, T. Vreven, J. A. Montgomery, Jr., 
 J. E. Peralta, F. Ogliaro, M. Bearpark, J. J. Heyd, E. Brothers, 
 K. N. Kudin, V. N. Staroverov, R. Kobayashi, J. Normand, 
 K. Raghavachari, A. Rendell, J. C. Burant, S. S. Iyengar, J. Tomasi, 
 M. Cossi, N. Rega, J. M. Millam, M. Klene, J. E. Knox, J. B. Cross, 
 V. Bakken, C. Adamo, J. Jaramillo, R. Gomperts, R. E. Stratmann, 
 O. Yazyev, A. J. Austin, R. Cammi, C. Pomelli, J. W. Ochterski, 
 R. L. Martin, K. Morokuma, V. G. Zakrzewski, G. A. Voth, 
 P. Salvador, J. J. Dannenberg, S. Dapprich, A. D. Daniels, 
 O. Farkas, J. B. Foresman, J. V. Ortiz, J. Cioslowski, 
 and D. J. Fox, Gaussian, Inc., Wallingford CT, 2009.
 
 ******************************************
 Gaussian 09:  EM64L-G09RevA.02 11-Jun-2009
                10-Jul-2013 
 ******************************************
 %chk=vibave
 %mem=1000mb
 %nproc=1
 Will use up to    1 processors via shared memory.
 ----------------------------------------------------------------------
 #P B3LYP/6-311++G** scf(conver=11) int=ultrafine polar=optrot cphf(rdf
 req,conver=11)
 ----------------------------------------------------------------------
 1/38=1,83=21/1;
 2/12=2,17=6,18=5,40=1/2;
 3/5=4,6=6,7=1111,11=2,16=1,25=1,30=1,36=2,74=-5,75=-5/1,2,3;
 4//1;
 5/5=2,6=11,38=5,96=-2,98=1/2;
 8/6=4,10=90,11=11/1;
 10/6=1,7=11,13=10,46=8,60=-2,72=3/2;
 6/7=2,8=2,9=2,10=2,28=1/1;
 99/5=1,9=1/99;
 Leave Link    1 at Wed Jul 10 16:50:08 2013, MaxMem=  131072000 cpu:       0.1
 (Enter /cerebro/home/software/apps/g09/l101.exe)
 -----------------------------
 (R)-3-chloro-1-butene tau=120
 -----------------------------
 Symbolic Z-matrix:
 Charge =  0 Multiplicity = 1
 C                     0.36667   1.70533   0.00583 
 C                     0.00734   0.25873  -0.33367 
 C                    -1.18888  -0.22613   0.4231 
 C                    -2.43788  -0.29357  -0.15311 
 H                    -2.64351  -0.07249  -1.23724 
 H                     1.2651    2.02046  -0.53024 
 H                    -3.30243  -0.5677    0.44055 
 H                    -1.01037  -0.44661   1.50806 
 H                    -0.14868   0.14327  -1.40623 
 H                     0.54357   1.82554   1.07817 
 H                    -0.46723   2.35718  -0.28315 
 Cl                    1.46774  -0.81738   0.04162 
 
 NAtoms=     12 NQM=     12 NQMF=      0 NMic=      0 NMicF=      0 NTot=     12.
                    Isotopes and Nuclear Properties:
 (Nuclear quadrupole moments (NQMom) in fm**2, nuclear magnetic moments (NMagM)
  in nuclear magnetons)

  Atom         1           2           3           4           5           6           7           8           9          10
 IAtWgt=          12          12          12          12           1           1           1           1           1           1
 AtmWgt=  12.0000000  12.0000000  12.0000000  12.0000000   1.0078250   1.0078250   1.0078250   1.0078250   1.0078250   1.0078250
 NucSpn=           0           0           0           0           1           1           1           1           1           1
 AtZEff=   0.0000000   0.0000000   0.0000000   0.0000000   0.0000000   0.0000000   0.0000000   0.0000000   0.0000000   0.0000000
 NQMom=    0.0000000   0.0000000   0.0000000   0.0000000   0.0000000   0.0000000   0.0000000   0.0000000   0.0000000   0.0000000
 NMagM=    0.0000000   0.0000000   0.0000000   0.0000000   2.7928460   2.7928460   2.7928460   2.7928460   2.7928460   2.7928460

  Atom        11          12
 IAtWgt=           1          35
 AtmWgt=   1.0078250  34.9688527
 NucSpn=           1           3
 AtZEff=   0.0000000   0.0000000
 NQMom=    0.0000000  -8.1650000
 NMagM=    2.7928460   0.8218740
 Using perturbation frequencies:    0.071980    0.077357    0.104503    0.128347
 Leave Link  101 at Wed Jul 10 16:50:09 2013, MaxMem=  131072000 cpu:       0.1
 (Enter /cerebro/home/software/apps/g09/l202.exe)
                          Input orientation:                          
 ---------------------------------------------------------------------
 Center     Atomic      Atomic             Coordinates (Angstroms)
 Number     Number       Type             X           Y           Z
 ---------------------------------------------------------------------
      1          6           0        0.366671    1.705328    0.005825
      2          6           0        0.007345    0.258734   -0.333672
      3          6           0       -1.188884   -0.226126    0.423097
      4          6           0       -2.437882   -0.293568   -0.153107
      5          1           0       -2.643505   -0.072489   -1.237241
      6          1           0        1.265096    2.020456   -0.530244
      7          1           0       -3.302431   -0.567696    0.440554
      8          1           0       -1.010374   -0.446611    1.508056
      9          1           0       -0.148676    0.143271   -1.406232
     10          1           0        0.543573    1.825544    1.078175
     11          1           0       -0.467229    2.357175   -0.283151
     12         17           0        1.467742   -0.817383    0.041621
 ---------------------------------------------------------------------
                    Distance matrix (angstroms):
                    1          2          3          4          5
     1  C    0.000000
     2  C    1.528728   0.000000
     3  C    2.514833   1.496246   0.000000
     4  C    3.447661   2.513320   1.377155   0.000000
     5  H    3.710392   2.820134   2.212748   1.125390   0.000000
     6  H    1.092631   2.173532   3.460926   4.382806   4.489702
     7  H    4.337965   3.498147   2.141041   1.083986   1.869334
     8  H    2.963746   2.219284   1.121434   2.195601   3.216169
     9  H    2.167836   1.089982   2.136570   2.646057   2.509837
    10  H    1.093471   2.176177   2.764034   3.859504   4.372774
    11  H    1.097179   2.152029   2.773629   3.305575   3.398490
    12  Cl   2.752764   1.852466   2.748230   3.945402   4.369521
                    6          7          8          9         10
     6  H    0.000000
     7  H    5.338847   0.000000
     8  H    3.926684   2.531353   0.000000
     9  H    2.507973   3.723206   3.095732   0.000000
    10  H    1.773583   4.574485   2.786080   3.079209   0.000000
    11  H    1.781961   4.137269   3.371149   2.502830   1.776952
    12  Cl   2.901969   4.793333   2.903267   2.373171   2.985564
                   11         12
    11  H    0.000000
    12  Cl   3.731944   0.000000
 Stoichiometry    C4H7Cl
 Framework group  C1[X(C4H7Cl)]
 Deg. of freedom    30
 Full point group                 C1      NOp   1
 Largest Abelian subgroup         C1      NOp   1
 Largest concise Abelian subgroup C1      NOp   1
                         Standard orientation:                         
 ---------------------------------------------------------------------
 Center     Atomic      Atomic             Coordinates (Angstroms)
 Number     Number       Type             X           Y           Z
 ---------------------------------------------------------------------
      1          6           0        0.206695    1.729330    0.110666
      2          6           0       -0.014460    0.278024   -0.315724
      3          6           0       -1.149876   -0.366195    0.415415
      4          6           0       -2.392604   -0.519648   -0.157853
      5          1           0       -2.630344   -0.253968   -1.225278
      6          1           0        1.064544    2.162500   -0.409241
      7          1           0       -3.220089   -0.912302    0.421903
      8          1           0       -0.939170   -0.633974    1.483830
      9          1           0       -0.170110    0.213512   -1.392604
     10          1           0        0.382665    1.800610    1.187529
     11          1           0       -0.689487    2.313306   -0.133528
     12         17           0        1.547263   -0.671691   -0.014567
 ---------------------------------------------------------------------
 Rotational constants (GHZ):      6.1086751      2.5299240      1.9429048
 Leave Link  202 at Wed Jul 10 16:50:09 2013, MaxMem=  131072000 cpu:       0.0
 (Enter /cerebro/home/software/apps/g09/l301.exe)
 Standard basis: 6-311++G(d,p) (5D, 7F)
 Ernie: Thresh=  0.10000D-02 Tol=  0.10000D-05 Strict=F.
 There are   167 symmetry adapted basis functions of A   symmetry.
 Integral buffers will be    131072 words long.
 Raffenetti 2 integral format.
 Two-electron integral symmetry is turned on.
   167 basis functions,   260 primitive gaussians,   172 cartesian basis functions
    24 alpha electrons       24 beta electrons
       nuclear repulsion energy       209.9586170530 Hartrees.
 IExCor=  402 DFT=T Ex+Corr=B3LYP ExCW=0 ScaHFX=  0.200000
 ScaDFX=  0.800000  0.720000  1.000000  0.810000 ScalE2=  1.000000  1.000000
 IRadAn=      5 IRanWt=     -1 IRanGd=            0 ICorTp=0
 NAtoms=   12 NActive=   12 NUniq=   12 SFac= 7.50D-01 NAtFMM=   80 NAOKFM=F Big=F
 Leave Link  301 at Wed Jul 10 16:50:09 2013, MaxMem=  131072000 cpu:       0.1
 (Enter /cerebro/home/software/apps/g09/l302.exe)
 NPDir=0 NMtPBC=     1 NCelOv=     1 NCel=       1 NClECP=     1 NCelD=      1
         NCelK=      1 NCelE2=     1 NClLst=     1 CellRange=     0.0.
 One-electron integrals computed using PRISM.
 NBasis=   167 RedAO= T  NBF=   167
 NBsUse=   167 1.00D-06 NBFU=   167
 Precomputing XC quadrature grid using
 IXCGrd= 2 IRadAn=           5 IRanWt=          -1 IRanGd=           0 AccXCQ= 1.00D-10.
 NRdTot=    1019 NPtTot=      273684 NUsed=      280986 NTot=      281018
 NSgBfM=   172   172   172   172   172 NAtAll=    12    12.
 Leave Link  302 at Wed Jul 10 16:50:10 2013, MaxMem=  131072000 cpu:       0.7
 (Enter /cerebro/home/software/apps/g09/l303.exe)
 DipDrv:  MaxL=2.
 Leave Link  303 at Wed Jul 10 16:50:10 2013, MaxMem=  131072000 cpu:       0.1
 (Enter /cerebro/home/software/apps/g09/l401.exe)
 Harris functional with IExCor=  402 diagonalized for initial guess.
 ExpMin= 3.60D-02 ExpMax= 1.06D+05 ExpMxC= 3.62D+03 IAcc=3 IRadAn=         5 AccDes= 0.00D+00
 HarFok:  IExCor=  402 AccDes= 0.00D+00 IRadAn=         5 IDoV= 1
 ScaDFX=  1.000000  1.000000  1.000000  1.000000
 FoFCou: FMM=F IPFlag=           0 FMFlag=      100000 FMFlg1=           0
         NFxFlg=           0 DoJE=T BraDBF=F KetDBF=T FulRan=T
         Omega=  0.000000  0.000000  1.000000  0.000000  0.000000 ICntrl=     500 IOpCl=  0
         NMat0=    1 NMatS0=    1 NMatT0=    0 NMatD0=    1 NMtDS0=    0 NMtDT0=    0
         I1Cent=           4 NGrid=           0.
 Petite list used in FoFCou.
 Harris En= -616.896924632383    
 Initial guess orbital symmetries:
       Occupied  (A) (A) (A) (A) (A) (A) (A) (A) (A) (A) (A) (A)
                 (A) (A) (A) (A) (A) (A) (A) (A) (A) (A) (A) (A)
       Virtual   (A) (A) (A) (A) (A) (A) (A) (A) (A) (A) (A) (A)
                 (A) (A) (A) (A) (A) (A) (A) (A) (A) (A) (A) (A)
                 (A) (A) (A) (A) (A) (A) (A) (A) (A) (A) (A) (A)
                 (A) (A) (A) (A) (A) (A) (A) (A) (A) (A) (A) (A)
                 (A) (A) (A) (A) (A) (A) (A) (A) (A) (A) (A) (A)
                 (A) (A) (A) (A) (A) (A) (A) (A) (A) (A) (A) (A)
                 (A) (A) (A) (A) (A) (A) (A) (A) (A) (A) (A) (A)
                 (A) (A) (A) (A) (A) (A) (A) (A) (A) (A) (A) (A)
                 (A) (A) (A) (A) (A) (A) (A) (A) (A) (A) (A) (A)
                 (A) (A) (A) (A) (A) (A) (A) (A) (A) (A) (A) (A)
                 (A) (A) (A) (A) (A) (A) (A) (A) (A) (A) (A) (A)
                 (A) (A) (A) (A) (A) (A) (A) (A) (A) (A) (A)
 The electronic state of the initial guess is 1-A.
 Leave Link  401 at Wed Jul 10 16:50:17 2013, MaxMem=  131072000 cpu:       7.5
 (Enter /cerebro/home/software/apps/g09/l502.exe)
 Closed shell SCF:
 Requested convergence on RMS density matrix=1.00D-11 within 128 cycles.
 Requested convergence on MAX density matrix=1.00D-09.
 Requested convergence on             energy=1.00D-09.
 No special actions if energy rises.
 Using DIIS extrapolation, IDIIS=  1040.
 Integral symmetry usage will be decided dynamically.
       280865 words used for storage of precomputed grid.
 Keep R1 ints in memory in canonical form, NReq=113663757.
 IEnd=      390090 IEndB=      390090 NGot=   131072000 MDV=    20043398
 LenX=    20043398 LenY=    20013373
 Symmetry not used in FoFDir.
 MinBra= 0 MaxBra= 2 Meth= 1.
 IRaf=       0 NMat=   1 IRICut=       1 DoRegI=T DoRafI=F ISym2E= 0 JSym2E=0.

 Cycle   1  Pass 1  IDiag  1:
 E= -616.731451612292    
 DIIS: error= 2.34D-02 at cycle   1 NSaved=   1.
 NSaved= 1 IEnMin= 1 EnMin= -616.731451612292     IErMin= 1 ErrMin= 2.34D-02
 ErrMax= 2.34D-02 EMaxC= 1.00D-01 BMatC= 1.90D-01 BMatP= 1.90D-01
 IDIUse=3 WtCom= 7.66D-01 WtEn= 2.34D-01
 Coeff-Com:  0.100D+01
 Coeff-En:   0.100D+01
 Coeff:      0.100D+01
 Gap=     0.377 Goal=   None    Shift=    0.000
 GapD=    0.377 DampG=1.000 DampE=0.500 DampFc=0.5000 IDamp=-1.
 Damping current iteration by 5.00D-01
 RMSDP=5.58D-03 MaxDP=1.40D-01              OVMax= 2.02D-01

 Cycle   2  Pass 1  IDiag  1:
 E= -616.796483997122     Delta-E=       -0.065032384830 Rises=F Damp=T
 DIIS: error= 5.99D-03 at cycle   2 NSaved=   2.
 NSaved= 2 IEnMin= 2 EnMin= -616.796483997122     IErMin= 2 ErrMin= 5.99D-03
 ErrMax= 5.99D-03 EMaxC= 1.00D-01 BMatC= 1.28D-02 BMatP= 1.90D-01
 IDIUse=3 WtCom= 9.40D-01 WtEn= 5.99D-02
 Coeff-Com:  0.414D-01 0.959D+00
 Coeff-En:   0.188D+00 0.812D+00
 Coeff:      0.502D-01 0.950D+00
 Gap=     0.277 Goal=   None    Shift=    0.000
 RMSDP=3.46D-03 MaxDP=1.48D-01 DE=-6.50D-02 OVMax= 1.32D-01

 Cycle   3  Pass 1  IDiag  1:
 E= -616.884266825525     Delta-E=       -0.087782828404 Rises=F Damp=F
 DIIS: error= 5.99D-03 at cycle   3 NSaved=   3.
 NSaved= 3 IEnMin= 3 EnMin= -616.884266825525     IErMin= 3 ErrMin= 5.99D-03
 ErrMax= 5.99D-03 EMaxC= 1.00D-01 BMatC= 5.23D-03 BMatP= 1.28D-02
 IDIUse=3 WtCom= 9.40D-01 WtEn= 5.99D-02
 Coeff-Com: -0.647D-01 0.352D+00 0.713D+00
 Coeff-En:   0.000D+00 0.000D+00 0.100D+01
 Coeff:     -0.608D-01 0.331D+00 0.730D+00
 Gap=     0.249 Goal=   None    Shift=    0.000
 RMSDP=1.52D-03 MaxDP=3.72D-02 DE=-8.78D-02 OVMax= 3.30D-02

 Cycle   4  Pass 1  IDiag  1:
 E= -616.888196349259     Delta-E=       -0.003929523734 Rises=F Damp=F
 DIIS: error= 3.21D-03 at cycle   4 NSaved=   4.
 NSaved= 4 IEnMin= 4 EnMin= -616.888196349259     IErMin= 4 ErrMin= 3.21D-03
 ErrMax= 3.21D-03 EMaxC= 1.00D-01 BMatC= 1.95D-03 BMatP= 5.23D-03
 IDIUse=3 WtCom= 9.68D-01 WtEn= 3.21D-02
 Coeff-Com: -0.390D-01 0.131D+00 0.444D+00 0.463D+00
 Coeff-En:   0.000D+00 0.000D+00 0.243D+00 0.757D+00
 Coeff:     -0.377D-01 0.127D+00 0.438D+00 0.473D+00
 Gap=     0.239 Goal=   None    Shift=    0.000
 RMSDP=4.70D-04 MaxDP=1.41D-02 DE=-3.93D-03 OVMax= 1.63D-02

 Cycle   5  Pass 1  IDiag  1:
 E= -616.890003584383     Delta-E=       -0.001807235124 Rises=F Damp=F
 DIIS: error= 8.03D-04 at cycle   5 NSaved=   5.
 NSaved= 5 IEnMin= 5 EnMin= -616.890003584383     IErMin= 5 ErrMin= 8.03D-04
 ErrMax= 8.03D-04 EMaxC= 1.00D-01 BMatC= 1.01D-04 BMatP= 1.95D-03
 IDIUse=3 WtCom= 9.92D-01 WtEn= 8.03D-03
 Coeff-Com: -0.155D-01 0.459D-01 0.193D+00 0.256D+00 0.521D+00
 Coeff-En:   0.000D+00 0.000D+00 0.000D+00 0.000D+00 0.100D+01
 Coeff:     -0.154D-01 0.455D-01 0.192D+00 0.254D+00 0.525D+00
 Gap=     0.239 Goal=   None    Shift=    0.000
 RMSDP=1.22D-04 MaxDP=4.37D-03 DE=-1.81D-03 OVMax= 7.83D-03

 Cycle   6  Pass 1  IDiag  1:
 E= -616.890092518265     Delta-E=       -0.000088933882 Rises=F Damp=F
 DIIS: error= 3.27D-04 at cycle   6 NSaved=   6.
 NSaved= 6 IEnMin= 6 EnMin= -616.890092518265     IErMin= 6 ErrMin= 3.27D-04
 ErrMax= 3.27D-04 EMaxC= 1.00D-01 BMatC= 1.91D-05 BMatP= 1.01D-04
 IDIUse=3 WtCom= 9.97D-01 WtEn= 3.27D-03
 Coeff-Com: -0.403D-02 0.817D-02 0.563D-01 0.860D-01 0.328D+00 0.525D+00
 Coeff-En:   0.000D+00 0.000D+00 0.000D+00 0.000D+00 0.166D+00 0.834D+00
 Coeff:     -0.402D-02 0.814D-02 0.561D-01 0.857D-01 0.328D+00 0.526D+00
 Gap=     0.239 Goal=   None    Shift=    0.000
 RMSDP=4.20D-05 MaxDP=1.29D-03 DE=-8.89D-05 OVMax= 2.50D-03

 Cycle   7  Pass 1  IDiag  1:
 E= -616.890111532279     Delta-E=       -0.000019014014 Rises=F Damp=F
 DIIS: error= 3.43D-05 at cycle   7 NSaved=   7.
 NSaved= 7 IEnMin= 7 EnMin= -616.890111532279     IErMin= 7 ErrMin= 3.43D-05
 ErrMax= 3.43D-05 EMaxC= 1.00D-01 BMatC= 4.30D-07 BMatP= 1.91D-05
 IDIUse=1 WtCom= 1.00D+00 WtEn= 0.00D+00
 Coeff-Com: -0.729D-03 0.492D-03 0.124D-01 0.199D-01 0.103D+00 0.221D+00
 Coeff-Com:  0.644D+00
 Coeff:     -0.729D-03 0.492D-03 0.124D-01 0.199D-01 0.103D+00 0.221D+00
 Coeff:      0.644D+00
 Gap=     0.239 Goal=   None    Shift=    0.000
 RMSDP=1.06D-05 MaxDP=3.78D-04 DE=-1.90D-05 OVMax= 1.67D-04

 Cycle   8  Pass 1  IDiag  1:
 E= -616.890111919321     Delta-E=       -0.000000387041 Rises=F Damp=F
 DIIS: error= 6.71D-06 at cycle   8 NSaved=   8.
 NSaved= 8 IEnMin= 8 EnMin= -616.890111919321     IErMin= 8 ErrMin= 6.71D-06
 ErrMax= 6.71D-06 EMaxC= 1.00D-01 BMatC= 1.69D-08 BMatP= 4.30D-07
 IDIUse=1 WtCom= 1.00D+00 WtEn= 0.00D+00
 Coeff-Com:  0.440D-04-0.344D-03 0.803D-03 0.165D-02 0.173D-01 0.521D-01
 Coeff-Com:  0.231D+00 0.698D+00
 Coeff:      0.440D-04-0.344D-03 0.803D-03 0.165D-02 0.173D-01 0.521D-01
 Coeff:      0.231D+00 0.698D+00
 Gap=     0.239 Goal=   None    Shift=    0.000
 RMSDP=2.12D-06 MaxDP=7.75D-05 DE=-3.87D-07 OVMax= 4.63D-05

 Cycle   9  Pass 1  IDiag  1:
 E= -616.890111935192     Delta-E=       -0.000000015872 Rises=F Damp=F
 DIIS: error= 2.03D-06 at cycle   9 NSaved=   9.
 NSaved= 9 IEnMin= 9 EnMin= -616.890111935192     IErMin= 9 ErrMin= 2.03D-06
 ErrMax= 2.03D-06 EMaxC= 1.00D-01 BMatC= 1.14D-09 BMatP= 1.69D-08
 IDIUse=1 WtCom= 1.00D+00 WtEn= 0.00D+00
 Coeff-Com:  0.405D-04-0.101D-03-0.421D-03-0.591D-03-0.175D-02-0.573D-04
 Coeff-Com:  0.186D-01 0.242D+00 0.742D+00
 Coeff:      0.405D-04-0.101D-03-0.421D-03-0.591D-03-0.175D-02-0.573D-04
 Coeff:      0.186D-01 0.242D+00 0.742D+00
 Gap=     0.239 Goal=   None    Shift=    0.000
 RMSDP=7.83D-07 MaxDP=3.10D-05 DE=-1.59D-08 OVMax= 8.84D-06

 Cycle  10  Pass 1  IDiag  1:
 E= -616.890111936325     Delta-E=       -0.000000001133 Rises=F Damp=F
 DIIS: error= 3.29D-07 at cycle  10 NSaved=  10.
 NSaved=10 IEnMin=10 EnMin= -616.890111936325     IErMin=10 ErrMin= 3.29D-07
 ErrMax= 3.29D-07 EMaxC= 1.00D-01 BMatC= 3.69D-11 BMatP= 1.14D-09
 IDIUse=1 WtCom= 1.00D+00 WtEn= 0.00D+00
 Coeff-Com:  0.113D-04-0.208D-04-0.170D-03-0.247D-03-0.110D-02-0.138D-02
 Coeff-Com: -0.252D-04 0.695D-01 0.262D+00 0.671D+00
 Coeff:      0.113D-04-0.208D-04-0.170D-03-0.247D-03-0.110D-02-0.138D-02
 Coeff:     -0.252D-04 0.695D-01 0.262D+00 0.671D+00
 Gap=     0.239 Goal=   None    Shift=    0.000
 RMSDP=1.60D-07 MaxDP=6.13D-06 DE=-1.13D-09 OVMax= 1.98D-06

 Cycle  11  Pass 1  IDiag  1:
 E= -616.890111936354     Delta-E=       -0.000000000029 Rises=F Damp=F
 DIIS: error= 1.45D-07 at cycle  11 NSaved=  11.
 NSaved=11 IEnMin=11 EnMin= -616.890111936354     IErMin=11 ErrMin= 1.45D-07
 ErrMax= 1.45D-07 EMaxC= 1.00D-01 BMatC= 5.90D-12 BMatP= 3.69D-11
 IDIUse=1 WtCom= 1.00D+00 WtEn= 0.00D+00
 Coeff-Com:  0.266D-05-0.356D-05-0.556D-04-0.811D-04-0.401D-03-0.583D-03
 Coeff-Com: -0.115D-02 0.162D-01 0.718D-01 0.329D+00 0.585D+00
 Coeff:      0.266D-05-0.356D-05-0.556D-04-0.811D-04-0.401D-03-0.583D-03
 Coeff:     -0.115D-02 0.162D-01 0.718D-01 0.329D+00 0.585D+00
 Gap=     0.239 Goal=   None    Shift=    0.000
 RMSDP=3.01D-08 MaxDP=8.93D-07 DE=-2.89D-11 OVMax= 5.54D-07

 Cycle  12  Pass 1  IDiag  1:
 E= -616.890111936360     Delta-E=       -0.000000000005 Rises=F Damp=F
 DIIS: error= 2.16D-08 at cycle  12 NSaved=  12.
 NSaved=12 IEnMin=12 EnMin= -616.890111936360     IErMin=12 ErrMin= 2.16D-08
 ErrMax= 2.16D-08 EMaxC= 1.00D-01 BMatC= 1.29D-13 BMatP= 5.90D-12
 IDIUse=1 WtCom= 1.00D+00 WtEn= 0.00D+00
 Coeff-Com: -0.231D-06 0.711D-06-0.195D-05-0.427D-05-0.328D-04-0.291D-04
 Coeff-Com: -0.304D-03-0.107D-02 0.198D-03 0.371D-01 0.140D+00 0.824D+00
 Coeff:     -0.231D-06 0.711D-06-0.195D-05-0.427D-05-0.328D-04-0.291D-04
 Coeff:     -0.304D-03-0.107D-02 0.198D-03 0.371D-01 0.140D+00 0.824D+00
 Gap=     0.239 Goal=   None    Shift=    0.000
 RMSDP=1.26D-08 MaxDP=5.68D-07 DE=-5.46D-12 OVMax= 1.35D-07

 Cycle  13  Pass 1  IDiag  1:
 E= -616.890111936359     Delta-E=        0.000000000000 Rises=F Damp=F
 DIIS: error= 5.16D-09 at cycle  13 NSaved=  13.
 NSaved=13 IEnMin=12 EnMin= -616.890111936360     IErMin=13 ErrMin= 5.16D-09
 ErrMax= 5.16D-09 EMaxC= 1.00D-01 BMatC= 5.56D-15 BMatP= 1.29D-13
 IDIUse=1 WtCom= 1.00D+00 WtEn= 0.00D+00
 Coeff-Com: -0.132D-06 0.296D-06 0.943D-06 0.717D-06-0.109D-05 0.740D-05
 Coeff-Com: -0.750D-04-0.778D-03-0.190D-02 0.186D-02 0.242D-01 0.250D+00
 Coeff-Com:  0.727D+00
 Coeff:     -0.132D-06 0.296D-06 0.943D-06 0.717D-06-0.109D-05 0.740D-05
 Coeff:     -0.750D-04-0.778D-03-0.190D-02 0.186D-02 0.242D-01 0.250D+00
 Coeff:      0.727D+00
 Gap=     0.239 Goal=   None    Shift=    0.000
 RMSDP=3.15D-09 MaxDP=1.35D-07 DE= 4.55D-13 OVMax= 2.18D-08

 Cycle  14  Pass 1  IDiag  1:
 E= -616.890111936363     Delta-E=       -0.000000000003 Rises=F Damp=F
 DIIS: error= 9.01D-10 at cycle  14 NSaved=  14.
 NSaved=14 IEnMin=14 EnMin= -616.890111936363     IErMin=14 ErrMin= 9.01D-10
 ErrMax= 9.01D-10 EMaxC= 1.00D-01 BMatC= 2.15D-16 BMatP= 5.56D-15
 IDIUse=1 WtCom= 1.00D+00 WtEn= 0.00D+00
 Coeff-Com: -0.121D-07 0.247D-07 0.320D-06 0.388D-06 0.997D-06 0.284D-05
 Coeff-Com: -0.351D-05-0.106D-03-0.448D-03-0.172D-02-0.276D-02 0.925D-02
 Coeff-Com:  0.176D+00 0.820D+00
 Coeff:     -0.121D-07 0.247D-07 0.320D-06 0.388D-06 0.997D-06 0.284D-05
 Coeff:     -0.351D-05-0.106D-03-0.448D-03-0.172D-02-0.276D-02 0.925D-02
 Coeff:      0.176D+00 0.820D+00
 Gap=     0.239 Goal=   None    Shift=    0.000
 RMSDP=7.06D-10 MaxDP=3.19D-08 DE=-3.41D-12 OVMax= 3.85D-09

 Cycle  15  Pass 1  IDiag  1:
 E= -616.890111936360     Delta-E=        0.000000000002 Rises=F Damp=F
 DIIS: error= 2.12D-10 at cycle  15 NSaved=  15.
 NSaved=15 IEnMin=14 EnMin= -616.890111936363     IErMin=15 ErrMin= 2.12D-10
 ErrMax= 2.12D-10 EMaxC= 1.00D-01 BMatC= 4.66D-18 BMatP= 2.15D-16
 IDIUse=1 WtCom= 1.00D+00 WtEn= 0.00D+00
 Coeff-Com:  0.149D-09-0.409D-09 0.473D-07 0.804D-07 0.196D-06 0.458D-06
 Coeff-Com:  0.801D-06-0.266D-05-0.468D-04-0.358D-03-0.117D-02-0.392D-02
 Coeff-Com:  0.174D-01 0.154D+00 0.834D+00
 Coeff:      0.149D-09-0.409D-09 0.473D-07 0.804D-07 0.196D-06 0.458D-06
 Coeff:      0.801D-06-0.266D-05-0.468D-04-0.358D-03-0.117D-02-0.392D-02
 Coeff:      0.174D-01 0.154D+00 0.834D+00
 Gap=     0.239 Goal=   None    Shift=    0.000
 RMSDP=9.55D-11 MaxDP=3.24D-09 DE= 2.27D-12 OVMax= 6.77D-10

 Cycle  16  Pass 1  IDiag  1:
 E= -616.890111936362     Delta-E=       -0.000000000002 Rises=F Damp=F
 DIIS: error= 5.38D-11 at cycle  16 NSaved=  16.
 NSaved=16 IEnMin=14 EnMin= -616.890111936363     IErMin=16 ErrMin= 5.38D-11
 ErrMax= 5.38D-11 EMaxC= 1.00D-01 BMatC= 2.64D-19 BMatP= 4.66D-18
 IDIUse=1 WtCom= 1.00D+00 WtEn= 0.00D+00
 Large coefficients: NSaved= 16 BigCof=    0.00 CofMax=   10.00 Det=-2.33D-18
 Inversion failed.  Reducing to 15 matrices.
 Coeff-Com: -0.155D-09 0.557D-08 0.150D-07 0.371D-07 0.980D-07 0.365D-06
 Coeff-Com:  0.158D-05-0.382D-06-0.322D-04-0.200D-03-0.109D-02-0.162D-02
 Coeff-Com:  0.665D-02 0.205D+00 0.791D+00
 Coeff:     -0.155D-09 0.557D-08 0.150D-07 0.371D-07 0.980D-07 0.365D-06
 Coeff:      0.158D-05-0.382D-06-0.322D-04-0.200D-03-0.109D-02-0.162D-02
 Coeff:      0.665D-02 0.205D+00 0.791D+00
 Gap=     0.239 Goal=   None    Shift=    0.000
 RMSDP=2.85D-11 MaxDP=1.03D-09 DE=-1.82D-12 OVMax= 1.64D-10

 Cycle  17  Pass 1  IDiag  1:
 E= -616.890111936361     Delta-E=        0.000000000001 Rises=F Damp=F
 DIIS: error= 6.67D-12 at cycle  17 NSaved=  16.
 NSaved=16 IEnMin=13 EnMin= -616.890111936363     IErMin=16 ErrMin= 6.67D-12
 ErrMax= 6.67D-12 EMaxC= 1.00D-01 BMatC= 7.20D-21 BMatP= 2.64D-19
 IDIUse=1 WtCom= 1.00D+00 WtEn= 0.00D+00
 Large coefficients: NSaved= 16 BigCof=    0.00 CofMax=   10.00 Det=-1.02D-19
 Inversion failed.  Reducing to 15 matrices.
 Coeff-Com: -0.917D-09-0.221D-09-0.191D-08 0.420D-08 0.450D-07 0.490D-06
 Coeff-Com:  0.215D-05 0.861D-05 0.208D-06-0.100D-03-0.113D-02-0.532D-02
 Coeff-Com:  0.153D-01 0.184D+00 0.807D+00
 Coeff:     -0.917D-09-0.221D-09-0.191D-08 0.420D-08 0.450D-07 0.490D-06
 Coeff:      0.215D-05 0.861D-05 0.208D-06-0.100D-03-0.113D-02-0.532D-02
 Coeff:      0.153D-01 0.184D+00 0.807D+00
 Gap=     0.239 Goal=   None    Shift=    0.000
 RMSDP=9.70D-12 MaxDP=4.55D-10 DE= 9.09D-13 OVMax= 2.69D-11

 SCF Done:  E(RB3LYP) =  -616.890111936     A.U. after   17 cycles
             Convg  =    0.9696D-11             -V/T =  2.0034
 KE= 6.147710355788D+02 PE=-1.876422738917D+03 EE= 4.348029743492D+02
 Leave Link  502 at Wed Jul 10 16:54:03 2013, MaxMem=  131072000 cpu:     225.3
 (Enter /cerebro/home/software/apps/g09/l801.exe)
 Range of M.O.s used for correlation:     1   167
 NBasis=   167 NAE=    24 NBE=    24 NFC=     0 NFV=     0
 NROrb=    167 NOA=    24 NOB=    24 NVA=   143 NVB=   143

 **** Warning!!: The largest alpha MO coefficient is  0.56440189D+02

 Leave Link  801 at Wed Jul 10 16:54:03 2013, MaxMem=  131072000 cpu:       0.1
 (Enter /cerebro/home/software/apps/g09/l1002.exe)
 Minotr:  Closed shell wavefunction.
          Direct CPHF calculation.
          Differentiating once with respect to magnetic field using GIAOs.
          Electric field/nuclear overlap derivatives assumed to be zero.
          Requested convergence is 1.0D-11 RMS, and 1.0D-10 maximum.
          NewPWx=F KeepS1=T KeepF1=T KeepIn=T MapXYZ=F SortEE=F KeepMc=T.
          MDV=     131071900 using IRadAn=       4.
 Generate precomputed XC quadrature information.
          Solving linear equations separately, MaxMat=       0.
          Doing perturbations at frequencies    0.071980    0.077357    0.104503    0.128347
 FoFCou: FMM=F IPFlag=           0 FMFlag=           0 FMFlg1=           0
         NFxFlg=           0 DoJE=F BraDBF=F KetDBF=T FulRan=T
         Omega=  0.000000  0.000000  1.000000  0.000000  0.000000 ICntrl=    6100 IOpCl=  0
         NMat0=    1 NMatS0=    1 NMatT0=    0 NMatD0=    1 NMtDS0=    0 NMtDT0=    0
         I1Cent=           7 NGrid=          12.
 Symmetry not used in FoFCou.
 Integrals replicated using symmetry in FoFDir.
 MinBra= 0 MaxBra= 2 Meth= 1.
 IRaf=       0 NMat=  24 IRICut=      30 DoRegI=T DoRafI=T ISym2E= 2 JSym2E=2.
 CalDSu exits because no D1Ps are significant.
          There are    12 degrees of freedom in the 1st order CPHF.  IDoFFX=0.
 LinEq1:  Iter=  0 NonCon=    12 RMS=5.71D-02 Max=1.24D+00
 AX will form    12 AO Fock derivatives at one time.
 LinEq1:  Iter=  1 NonCon=    12 RMS=1.98D-02 Max=1.03D+00
 LinEq1:  Iter=  2 NonCon=    12 RMS=1.55D-02 Max=5.08D-01
 LinEq1:  Iter=  3 NonCon=    12 RMS=7.10D-03 Max=2.55D-01
 LinEq1:  Iter=  4 NonCon=    12 RMS=3.41D-03 Max=5.44D-02
 LinEq1:  Iter=  5 NonCon=    12 RMS=1.66D-03 Max=5.04D-02
 LinEq1:  Iter=  6 NonCon=    12 RMS=9.17D-04 Max=1.63D-02
 LinEq1:  Iter=  7 NonCon=    12 RMS=4.02D-04 Max=7.15D-03
 LinEq1:  Iter=  8 NonCon=    12 RMS=1.58D-04 Max=2.85D-03
 LinEq1:  Iter=  9 NonCon=    12 RMS=5.28D-05 Max=8.54D-04
 LinEq1:  Iter= 10 NonCon=    12 RMS=2.13D-05 Max=3.62D-04
 LinEq1:  Iter= 11 NonCon=    12 RMS=8.84D-06 Max=1.80D-04
 LinEq1:  Iter= 12 NonCon=    12 RMS=4.31D-06 Max=7.35D-05
 LinEq1:  Iter= 13 NonCon=    12 RMS=1.51D-06 Max=2.45D-05
 LinEq1:  Iter= 14 NonCon=    12 RMS=4.42D-07 Max=8.23D-06
 LinEq1:  Iter= 15 NonCon=    12 RMS=1.09D-07 Max=1.77D-06
 LinEq1:  Iter= 16 NonCon=    12 RMS=3.16D-08 Max=5.23D-07
 LinEq1:  Iter= 17 NonCon=    12 RMS=9.99D-09 Max=1.80D-07
 LinEq1:  Iter= 18 NonCon=    12 RMS=2.69D-09 Max=5.27D-08
 LinEq1:  Iter= 19 NonCon=    12 RMS=6.71D-10 Max=1.03D-08
 LinEq1:  Iter= 20 NonCon=    12 RMS=1.97D-10 Max=4.83D-09
 LinEq1:  Iter= 21 NonCon=    10 RMS=5.48D-11 Max=9.33D-10
 LinEq1:  Iter= 22 NonCon=     4 RMS=1.49D-11 Max=2.95D-10
 LinEq1:  Iter= 23 NonCon=     0 RMS=5.00D-12 Max=8.99D-11
 Linear equations converged to 1.000D-11 1.000D-10 after    23 iterations.
 FullF1:  Do perturbations    1 to    12.
 Dipole-magnetic dipole polarizability for W=    0.071980:
                 1             2             3 
      1   0.577311D+01 -0.478018D+00 -0.488226D+01
      2  -0.113472D+02 -0.238922D+01 -0.235690D+02
      3   0.119870D+02  0.119318D+02 -0.251155D+01
 w=    0.071980 a.u., Optical Rotation Beta=     -0.2908 au.
 Molar Mass =     90.5523 grams/mole, [Alpha] ( 6330.0 A) =     -107.57 deg.
 Dipole-magnetic dipole polarizability for W=    0.077357:
                 1             2             3 
      1   0.586143D+01 -0.454562D+00 -0.485243D+01
      2  -0.115320D+02 -0.245341D+01 -0.236693D+02
      3   0.120244D+02  0.120141D+02 -0.250270D+01
 w=    0.077357 a.u., Optical Rotation Beta=     -0.3018 au.
 Molar Mass =     90.5523 grams/mole, [Alpha] ( 5890.0 A) =     -128.94 deg.
 Dipole-magnetic dipole polarizability for W=    0.104503:
                 1             2             3 
      1   0.647850D+01 -0.281984D+00 -0.463986D+01
      2  -0.128053D+02 -0.289257D+01 -0.243239D+02
      3   0.122920D+02  0.125828D+02 -0.243052D+01
 w=    0.104503 a.u., Optical Rotation Beta=     -0.3851 au.
 Molar Mass =     90.5523 grams/mole, [Alpha] ( 4360.0 A) =     -300.32 deg.
 Dipole-magnetic dipole polarizability for W=    0.128347:
                 1             2             3 
      1   0.737537D+01 -0.934162D-02 -0.432501D+01
      2  -0.145941D+02 -0.350023D+01 -0.251530D+02
      3   0.127123D+02  0.133950D+02 -0.229829D+01
 w=    0.128347 a.u., Optical Rotation Beta=     -0.5256 au.
 Molar Mass =     90.5523 grams/mole, [Alpha] ( 3550.0 A) =     -618.25 deg.
 End of Minotr Frequency-dependent properties on file   721 Mask=       2 NFrqRd=     4 NDeriv=     1 LenFil=      42:
 Frequencies=    0.071980    0.077357    0.104503    0.128347
 Property number 2 -- FD Optical Rotation Tensor frequency  1    0.071980:
                 1             2             3 
      1   0.577311D+01 -0.478018D+00 -0.488226D+01
      2  -0.113472D+02 -0.238922D+01 -0.235690D+02
      3   0.119870D+02  0.119318D+02 -0.251155D+01
 Property number 2 -- FD Optical Rotation Tensor frequency  2    0.077357:
                 1             2             3 
      1   0.586143D+01 -0.454562D+00 -0.485243D+01
      2  -0.115320D+02 -0.245341D+01 -0.236693D+02
      3   0.120244D+02  0.120141D+02 -0.250270D+01
 Property number 2 -- FD Optical Rotation Tensor frequency  3    0.104503:
                 1             2             3 
      1   0.647850D+01 -0.281984D+00 -0.463986D+01
      2  -0.128053D+02 -0.289257D+01 -0.243239D+02
      3   0.122920D+02  0.125828D+02 -0.243052D+01
 Property number 2 -- FD Optical Rotation Tensor frequency  4    0.128347:
                 1             2             3 
      1   0.737537D+01 -0.934162D-02 -0.432501D+01
      2  -0.145941D+02 -0.350023D+01 -0.251530D+02
      3   0.127123D+02  0.133950D+02 -0.229829D+01
 End of Minotr Frequency-dependent properties file   722 does not exist.
 Leave Link 1002 at Wed Jul 10 17:18:59 2013, MaxMem=  131072000 cpu:    1496.2
 (Enter /cerebro/home/software/apps/g09/l601.exe)
 Copying SCF densities to generalized density rwf, IOpCl= 0 IROHF=0.

 **********************************************************************

            Population analysis using the SCF density.

 **********************************************************************

 Orbital symmetries:
       Occupied  (A) (A) (A) (A) (A) (A) (A) (A) (A) (A) (A) (A)
                 (A) (A) (A) (A) (A) (A) (A) (A) (A) (A) (A) (A)
       Virtual   (A) (A) (A) (A) (A) (A) (A) (A) (A) (A) (A) (A)
                 (A) (A) (A) (A) (A) (A) (A) (A) (A) (A) (A) (A)
                 (A) (A) (A) (A) (A) (A) (A) (A) (A) (A) (A) (A)
                 (A) (A) (A) (A) (A) (A) (A) (A) (A) (A) (A) (A)
                 (A) (A) (A) (A) (A) (A) (A) (A) (A) (A) (A) (A)
                 (A) (A) (A) (A) (A) (A) (A) (A) (A) (A) (A) (A)
                 (A) (A) (A) (A) (A) (A) (A) (A) (A) (A) (A) (A)
                 (A) (A) (A) (A) (A) (A) (A) (A) (A) (A) (A) (A)
                 (A) (A) (A) (A) (A) (A) (A) (A) (A) (A) (A) (A)
                 (A) (A) (A) (A) (A) (A) (A) (A) (A) (A) (A) (A)
                 (A) (A) (A) (A) (A) (A) (A) (A) (A) (A) (A) (A)
                 (A) (A) (A) (A) (A) (A) (A) (A) (A) (A) (A)
 The electronic state is 1-A.
 Alpha  occ. eigenvalues -- -101.53596 -10.24911 -10.20596 -10.19495 -10.18211
 Alpha  occ. eigenvalues --   -9.45031  -7.21468  -7.20521  -7.20508  -0.86681
 Alpha  occ. eigenvalues --   -0.78228  -0.73672  -0.64063  -0.57394  -0.48377
 Alpha  occ. eigenvalues --   -0.47145  -0.43711  -0.42331  -0.40325  -0.37188
 Alpha  occ. eigenvalues --   -0.36755  -0.30600  -0.29948  -0.27578
 Alpha virt. eigenvalues --   -0.03634  -0.00826   0.00446   0.00705   0.01616
 Alpha virt. eigenvalues --    0.02440   0.03905   0.04463   0.05773   0.06612
 Alpha virt. eigenvalues --    0.07193   0.08208   0.08577   0.09576   0.11140
 Alpha virt. eigenvalues --    0.11455   0.11808   0.12316   0.12831   0.12853
 Alpha virt. eigenvalues --    0.13221   0.14117   0.15004   0.15739   0.15841
 Alpha virt. eigenvalues --    0.17015   0.17323   0.17756   0.19098   0.20845
 Alpha virt. eigenvalues --    0.21164   0.21879   0.24842   0.25844   0.27141
 Alpha virt. eigenvalues --    0.29695   0.32691   0.34828   0.36792   0.42602
 Alpha virt. eigenvalues --    0.42687   0.44247   0.45447   0.47694   0.49239
 Alpha virt. eigenvalues --    0.49506   0.52019   0.52029   0.56277   0.57917
 Alpha virt. eigenvalues --    0.60218   0.62310   0.63553   0.64109   0.65595
 Alpha virt. eigenvalues --    0.66245   0.68421   0.69982   0.71031   0.72273
 Alpha virt. eigenvalues --    0.78098   0.81603   0.83480   0.87056   0.88857
 Alpha virt. eigenvalues --    0.89930   0.92877   0.97323   1.00799   1.02915
 Alpha virt. eigenvalues --    1.06721   1.07656   1.09146   1.18757   1.21749
 Alpha virt. eigenvalues --    1.27179   1.38948   1.43054   1.44845   1.46081
 Alpha virt. eigenvalues --    1.49869   1.53466   1.55895   1.57322   1.57795
 Alpha virt. eigenvalues --    1.60870   1.64906   1.66072   1.68927   1.72852
 Alpha virt. eigenvalues --    1.76931   1.79325   1.86464   1.88274   1.92540
 Alpha virt. eigenvalues --    1.98671   1.98992   2.06831   2.10057   2.12474
 Alpha virt. eigenvalues --    2.15920   2.18149   2.23109   2.29031   2.30349
 Alpha virt. eigenvalues --    2.34768   2.37427   2.44240   2.45570   2.49785
 Alpha virt. eigenvalues --    2.52815   2.54605   2.57836   2.58508   2.59702
 Alpha virt. eigenvalues --    2.62716   2.69140   2.72150   2.74780   2.77090
 Alpha virt. eigenvalues --    2.83129   2.84242   2.92942   3.02713   3.06415
 Alpha virt. eigenvalues --    3.17614   3.35108   3.45345   3.67534   3.78782
 Alpha virt. eigenvalues --    3.79323   3.91790   4.11307   4.25282   9.75079
 Alpha virt. eigenvalues --   23.70180  23.78153  23.93893  24.08262  25.93377
 Alpha virt. eigenvalues --   25.95991  26.46439 215.73994
          Condensed to atoms (all electrons):
              1          2          3          4          5          6
     1  C    5.513774   0.142217  -0.104676   0.162210  -0.009225   0.364083
     2  C    0.142217   5.443844   0.043174  -0.077122  -0.013349  -0.043377
     3  C   -0.104676   0.043174   5.303083   0.381835  -0.021011   0.025432
     4  C    0.162210  -0.077122   0.381835   5.410124   0.365251  -0.006099
     5  H   -0.009225  -0.013349  -0.021011   0.365251   0.562551   0.000682
     6  H    0.364083  -0.043377   0.025432  -0.006099   0.000682   0.550113
     7  H    0.002804   0.020790  -0.037292   0.407662  -0.038924   0.000429
     8  H   -0.025112  -0.026964   0.351464  -0.048514   0.014513  -0.003202
     9  H   -0.045449   0.501900  -0.135548   0.001296   0.008025  -0.005023
    10  H    0.386194   0.011954  -0.051031   0.003522   0.002844  -0.022065
    11  H    0.357758  -0.054451   0.017552   0.007067  -0.001678  -0.025047
    12  Cl  -0.072334   0.047887   0.051018   0.019123   0.001312   0.016146
              7          8          9         10         11         12
     1  C    0.002804  -0.025112  -0.045449   0.386194   0.357758  -0.072334
     2  C    0.020790  -0.026964   0.501900   0.011954  -0.054451   0.047887
     3  C   -0.037292   0.351464  -0.135548  -0.051031   0.017552   0.051018
     4  C    0.407662  -0.048514   0.001296   0.003522   0.007067   0.019123
     5  H   -0.038924   0.014513   0.008025   0.002844  -0.001678   0.001312
     6  H    0.000429  -0.003202  -0.005023  -0.022065  -0.025047   0.016146
     7  H    0.533716  -0.018698  -0.001797  -0.001100   0.000035  -0.004996
     8  H   -0.018698   0.543764   0.005665   0.002024  -0.001230   0.028710
     9  H   -0.001797   0.005665   0.507546   0.006683  -0.014305  -0.063323
    10  H   -0.001100   0.002024   0.006683   0.538332  -0.035032  -0.002939
    11  H    0.000035  -0.001230  -0.014305  -0.035032   0.585457   0.024685
    12  Cl  -0.004996   0.028710  -0.063323  -0.002939   0.024685  16.961631
 Mulliken atomic charges:
              1
     1  C   -0.672244
     2  C    0.003497
     3  C    0.176002
     4  C   -0.626354
     5  H    0.129009
     6  H    0.147927
     7  H    0.137370
     8  H    0.177580
     9  H    0.234330
    10  H    0.160615
    11  H    0.139190
    12  Cl  -0.006920
 Sum of Mulliken atomic charges =   0.00000
 Mulliken charges with hydrogens summed into heavy atoms:
              1
     1  C   -0.224512
     2  C    0.237827
     3  C    0.353582
     4  C   -0.359976
    12  Cl  -0.006920
 Sum of Mulliken charges with hydrogens summed into heavy atoms =   0.00000
 Electronic spatial extent (au):  <R**2>=            642.8049
 Charge=              0.0000 electrons
 Dipole moment (field-independent basis, Debye):
    X=             -1.9041    Y=              1.3886    Z=             -0.2497  Tot=              2.3699
 Quadrupole moment (field-independent basis, Debye-Ang):
   XX=            -39.7941   YY=            -40.1470   ZZ=            -37.3585
   XY=              1.7392   XZ=              0.5551   YZ=             -1.0619
 Traceless Quadrupole moment (field-independent basis, Debye-Ang):
   XX=             -0.6942   YY=             -1.0471   ZZ=              1.7413
   XY=              1.7392   XZ=              0.5551   YZ=             -1.0619
 Octapole moment (field-independent basis, Debye-Ang**2):
  XXX=             -2.0916  YYY=              3.1138  ZZZ=             -0.6003  XYY=              4.5719
  XXY=             -3.7514  XXZ=             -1.1190  XZZ=             -0.3387  YZZ=             -0.5762
  YYZ=              0.6668  XYZ=              1.2636
 Hexadecapole moment (field-independent basis, Debye-Ang**3):
 XXXX=           -520.9681 YYYY=           -262.8204 ZZZZ=            -81.6226 XXXY=              5.6124
 XXXZ=              3.0641 YYYX=             -7.8462 YYYZ=             -2.4297 ZZZX=              2.1195
 ZZZY=             -1.2243 XXYY=           -133.7791 XXZZ=           -103.5751 YYZZ=            -58.0679
 XXYZ=             -6.1526 YYXZ=             -1.4180 ZZXY=              1.1470
 N-N= 2.099586170530D+02 E-N=-1.876422738917D+03  KE= 6.147710355788D+02
 No NMR shielding tensors so no spin-rotation constants.
 Leave Link  601 at Wed Jul 10 17:18:59 2013, MaxMem=  131072000 cpu:       0.3
 (Enter /cerebro/home/software/apps/g09/l9999.exe)
 AllDun Frequency-dependent properties on file 20721 Mask=       2 NFrqRd=     4 NDeriv=     1 LenFil=      42:
 Frequencies=    0.071980    0.077357    0.104503    0.128347
 Property number 2 -- FD Optical Rotation Tensor frequency  1    0.071980:
                 1             2             3 
      1   0.452149D+01 -0.164516D+01 -0.703144D+01
      2  -0.110828D+02 -0.193112D+01 -0.230734D+02
      3   0.138356D+02  0.106685D+02 -0.171803D+01
 Property number 2 -- FD Optical Rotation Tensor frequency  2    0.077357:
                 1             2             3 
      1   0.459242D+01 -0.163409D+01 -0.701186D+01
      2  -0.112771D+02 -0.197959D+01 -0.231736D+02
      3   0.138932D+02  0.107504D+02 -0.170751D+01
 Property number 2 -- FD Optical Rotation Tensor frequency  3    0.104503:
                 1             2             3 
      1   0.509059D+01 -0.154691D+01 -0.686708D+01
      2  -0.126165D+02 -0.230911D+01 -0.238272D+02
      3   0.143004D+02  0.113157D+02 -0.162606D+01
 Property number 2 -- FD Optical Rotation Tensor frequency  4    0.128347:
                 1             2             3 
      1   0.582280D+01 -0.139507D+01 -0.664049D+01
      2  -0.144981D+02 -0.275938D+01 -0.246561D+02
      3   0.149180D+02  0.121201D+02 -0.148655D+01
 1\1\GINC-COMPUTE-0-106\SP\RB3LYP\6-311++G(d,p)\C4H7Cl1\CRAWDAD\10-Jul-
 2013\0\\#P B3LYP/6-311++G** scf(conver=11) int=ultrafine polar=optrot 
 cphf(rdfreq,conver=11)\\(R)-3-chloro-1-butene tau=120\\0,1\C,0,0.36667
 141,1.70532832,0.00582549\C,0,0.00734479,0.25873388,-0.33367163\C,0,-1
 .18888403,-0.22612572,0.42309743\C,0,-2.43788209,-0.29356784,-0.153107
 11\H,0,-2.64350539,-0.07248866,-1.23724118\H,0,1.26509618,2.02045568,-
 0.53024406\H,0,-3.30243118,-0.56769632,0.44055417\H,0,-1.010374,-0.446
 61074,1.5080561\H,0,-0.14867597,0.14327137,-1.40623199\H,0,0.54357343,
 1.82554443,1.07817462\H,0,-0.46722882,2.35717537,-0.28315071\Cl,0,1.46
 774177,-0.81738294,0.04162111\\Version=EM64L-G09RevA.02\State=1-A\HF=-
 616.8901119\RMSD=9.696e-12\Dipole=-0.69193,0.6091958,-0.1394024\Quadru
 pole=-0.2712516,-1.1187169,1.3899686,1.2648825,0.2488242,-0.6705322\PG
 =C01 [X(C4H7Cl1)]\\@


 I WANT IT ALL - RICH, THIN, AND CHOCOLATE.
 Job cpu time:  0 days  0 hours 28 minutes 50.6 seconds.
 File lengths (MBytes):  RWF=    119 Int=      0 D2E=      0 Chk=      2 Scr=      1
 Normal termination of Gaussian 09 at Wed Jul 10 17:19:00 2013.
