(R)-3-chloro-1-butene tau=120                                           
SP        RB3LYP                                                      6-311++G(d,p)       
Number of atoms                            I               12
Info1-9                                    I   N=           9
          26          26           0           0           0         110
           1          18        -502
Full Title                                 C   N=           3
(R)-3-chloro-1-butene tau=120       
Route                                      C   N=           7
#P B3LYP/6-311++G** scf(conver=11) int=ultrafine polar=optro
t cphf(rdfreq,conver=11)
Charge                                     I                0
Multiplicity                               I                1
Number of electrons                        I               48
Number of alpha electrons                  I               24
Number of beta electrons                   I               24
Number of basis functions                  I              167
Number of independent functions            I              167
Number of point charges in /Mol/           I                0
Number of translation vectors              I                0
Atomic numbers                             I   N=          12
           6           6           6           6           1           1
           1           1           1           1           1          17
Nuclear charges                            R   N=          12
  6.00000000E+00  6.00000000E+00  6.00000000E+00  6.00000000E+00  1.00000000E+00
  1.00000000E+00  1.00000000E+00  1.00000000E+00  1.00000000E+00  1.00000000E+00
  1.00000000E+00  1.70000000E+01
Current cartesian coordinates              R   N=          36
  3.90597571E-01  3.26796096E+00  2.09129291E-01 -2.73251827E-02  5.25388945E-01
 -5.96632107E-01 -2.17295125E+00 -6.92007556E-01  7.85019739E-01 -4.52136702E+00
 -9.81992498E-01 -2.98298092E-01 -4.97062943E+00 -4.79930016E-01 -2.31544041E+00
  2.01169614E+00  4.08653200E+00 -7.73352882E-01 -6.08508644E+00 -1.72400170E+00
  7.97281829E-01 -1.77477355E+00 -1.19803704E+00  2.80403253E+00 -3.21462009E-01
  4.03479157E-01 -2.63164073E+00  7.23132010E-01  3.40265967E+00  2.24410447E+00
 -1.30294238E+00  4.37151396E+00 -2.52331589E-01  2.92390241E+00 -1.26931265E+00
 -2.75274236E-02
Number of symbols in /Mol/                 I                0
Force Field                                I                0
Atom Types                                 C   N=          12
                                                            
                                                            
                        
Int Atom Types                             I   N=          12
           0           0           0           0           0           0
           0           0           0           0           0           0
MM charges                                 R   N=          12
  0.00000000E+00  0.00000000E+00  0.00000000E+00  0.00000000E+00  0.00000000E+00
  0.00000000E+00  0.00000000E+00  0.00000000E+00  0.00000000E+00  0.00000000E+00
  0.00000000E+00  0.00000000E+00
Integer atomic weights                     I   N=          12
          12          12          12          12           1           1
           1           1           1           1           1          35
Real atomic weights                        R   N=          12
  1.20000000E+01  1.20000000E+01  1.20000000E+01  1.20000000E+01  1.00782504E+00
  1.00782504E+00  1.00782504E+00  1.00782504E+00  1.00782504E+00  1.00782504E+00
  1.00782504E+00  3.49688527E+01
Atom fragment info                         I   N=          12
           0           0           0           0           0           0
           0           0           0           0           0           0
Atom residue num                           I   N=          12
           0           0           0           0           0           0
           0           0           0           0           0           0
Nuclear spins                              I   N=          12
           0           0           0           0           1           1
           1           1           1           1           1           3
Nuclear ZEff                               R   N=          12
 -3.60000000E+00 -3.60000000E+00 -3.60000000E+00 -3.60000000E+00 -1.00000000E+00
 -1.00000000E+00 -1.00000000E+00 -1.00000000E+00 -1.00000000E+00 -1.00000000E+00
 -1.00000000E+00 -1.42400000E+01
Nuclear ZNuc                               R   N=          12
  6.00000000E+00  6.00000000E+00  6.00000000E+00  6.00000000E+00  1.00000000E+00
  1.00000000E+00  1.00000000E+00  1.00000000E+00  1.00000000E+00  1.00000000E+00
  1.00000000E+00  1.70000000E+01
Nuclear QMom                               R   N=          12
  0.00000000E+00  0.00000000E+00  0.00000000E+00  0.00000000E+00  0.00000000E+00
  0.00000000E+00  0.00000000E+00  0.00000000E+00  0.00000000E+00  0.00000000E+00
  0.00000000E+00 -8.16500000E+00
Nuclear GFac                               R   N=          12
  0.00000000E+00  0.00000000E+00  0.00000000E+00  0.00000000E+00  2.79284600E+00
  2.79284600E+00  2.79284600E+00  2.79284600E+00  2.79284600E+00  2.79284600E+00
  2.79284600E+00  8.21874000E-01
MicOpt                                     I   N=          12
          -1          -1          -1          -1          -1          -1
          -1          -1          -1          -1          -1          -1
Number of residues                         I                0
Number of secondary structures             I                0
SymInf integers                            I   N=          26
           1           1           1           1           1           0
           0           0           0           0           0           0
           0           0           0           0           0           0
           0           0           0           0           0           0
           0           0
RotTr to input orientation                 R   N=          12
  9.95239584E-01 -9.68611427E-02  1.07744975E-02  9.73403124E-02  9.93383022E-01
 -6.09510919E-02 -4.79941043E-03  6.17097323E-02  9.98082599E-01 -1.29302613E-02
  1.19497580E-03 -2.74242962E-03
Number of contracted shells                I               72
Number of primitive shells                 I              126
Pure/Cartesian d shells                    I                0
Pure/Cartesian f shells                    I                0
Highest angular momentum                   I                2
Largest degree of contraction              I                6
Shell types                                I   N=          72
           0          -1          -1          -1          -1          -2
           0          -1          -1          -1          -1          -2
           0          -1          -1          -1          -1          -2
           0          -1          -1          -1          -1          -2
           0           0           0           0           1           0
           0           0           0           1           0           0
           0           0           1           0           0           0
           0           1           0           0           0           0
           1           0           0           0           0           1
           0           0           0           0           1           0
           0           0           0           0           0          -1
           1           1           1           1           1          -2
Number of primitives per shell             I   N=          72
           6           3           1           1           1           1
           6           3           1           1           1           1
           6           3           1           1           1           1
           6           3           1           1           1           1
           3           1           1           1           1           3
           1           1           1           1           3           1
           1           1           1           3           1           1
           1           1           3           1           1           1
           1           3           1           1           1           1
           3           1           1           1           1           6
           3           1           1           1           1           1
           5           2           1           1           1           1
Shell to atom map                          I   N=          72
           1           1           1           1           1           1
           2           2           2           2           2           2
           3           3           3           3           3           3
           4           4           4           4           4           4
           5           5           5           5           5           6
           6           6           6           6           7           7
           7           7           7           8           8           8
           8           8           9           9           9           9
           9          10          10          10          10          10
          11          11          11          11          11          12
          12          12          12          12          12          12
          12          12          12          12          12          12
Primitive exponents                        R   N=         126
  4.56324000E+03  6.82024000E+02  1.54973000E+02  4.44553000E+01  1.30290000E+01
  1.82773000E+00  2.09642000E+01  4.80331000E+00  1.45933000E+00  4.83456000E-01
  1.45585000E-01  4.38000000E-02  6.26000000E-01  4.56324000E+03  6.82024000E+02
  1.54973000E+02  4.44553000E+01  1.30290000E+01  1.82773000E+00  2.09642000E+01
  4.80331000E+00  1.45933000E+00  4.83456000E-01  1.45585000E-01  4.38000000E-02
  6.26000000E-01  4.56324000E+03  6.82024000E+02  1.54973000E+02  4.44553000E+01
  1.30290000E+01  1.82773000E+00  2.09642000E+01  4.80331000E+00  1.45933000E+00
  4.83456000E-01  1.45585000E-01  4.38000000E-02  6.26000000E-01  4.56324000E+03
  6.82024000E+02  1.54973000E+02  4.44553000E+01  1.30290000E+01  1.82773000E+00
  2.09642000E+01  4.80331000E+00  1.45933000E+00  4.83456000E-01  1.45585000E-01
  4.38000000E-02  6.26000000E-01  3.38650000E+01  5.09479000E+00  1.15879000E+00
  3.25840000E-01  1.02741000E-01  3.60000000E-02  7.50000000E-01  3.38650000E+01
  5.09479000E+00  1.15879000E+00  3.25840000E-01  1.02741000E-01  3.60000000E-02
  7.50000000E-01  3.38650000E+01  5.09479000E+00  1.15879000E+00  3.25840000E-01
  1.02741000E-01  3.60000000E-02  7.50000000E-01  3.38650000E+01  5.09479000E+00
  1.15879000E+00  3.25840000E-01  1.02741000E-01  3.60000000E-02  7.50000000E-01
  3.38650000E+01  5.09479000E+00  1.15879000E+00  3.25840000E-01  1.02741000E-01
  3.60000000E-02  7.50000000E-01  3.38650000E+01  5.09479000E+00  1.15879000E+00
  3.25840000E-01  1.02741000E-01  3.60000000E-02  7.50000000E-01  3.38650000E+01
  5.09479000E+00  1.15879000E+00  3.25840000E-01  1.02741000E-01  3.60000000E-02
  7.50000000E-01  1.05819000E+05  1.58720000E+04  3.61965000E+03  1.03080000E+03
  3.39908000E+02  1.24538000E+02  1.24538000E+02  4.95135000E+01  2.08056000E+01
  6.58346000E+00  2.56468000E+00  5.59763000E-01  1.83273000E-01  4.83000000E-02
  5.89776000E+02  1.39849000E+02  4.51413000E+01  1.68733000E+01  2.77152000E+00
  6.74110000E+00  2.77152000E+00  1.02387000E+00  3.81368000E-01  1.09437000E-01
  7.50000000E-01
Contraction coefficients                   R   N=         126
  1.96665025E-03  1.52306019E-02  7.61269097E-02  2.60801033E-01  6.16462078E-01
  2.21006028E-01  1.14660081E-01  9.19999648E-01 -3.03068213E-03  1.00000000E+00
  1.00000000E+00  1.00000000E+00  1.00000000E+00  1.96665025E-03  1.52306019E-02
  7.61269097E-02  2.60801033E-01  6.16462078E-01  2.21006028E-01  1.14660081E-01
  9.19999648E-01 -3.03068213E-03  1.00000000E+00  1.00000000E+00  1.00000000E+00
  1.00000000E+00  1.96665025E-03  1.52306019E-02  7.61269097E-02  2.60801033E-01
  6.16462078E-01  2.21006028E-01  1.14660081E-01  9.19999648E-01 -3.03068213E-03
  1.00000000E+00  1.00000000E+00  1.00000000E+00  1.00000000E+00  1.96665025E-03
  1.52306019E-02  7.61269097E-02  2.60801033E-01  6.16462078E-01  2.21006028E-01
  1.14660081E-01  9.19999648E-01 -3.03068213E-03  1.00000000E+00  1.00000000E+00
  1.00000000E+00  1.00000000E+00  2.54938145E-02  1.90373109E-01  8.52161486E-01
  1.00000000E+00  1.00000000E+00  1.00000000E+00  1.00000000E+00  2.54938145E-02
  1.90373109E-01  8.52161486E-01  1.00000000E+00  1.00000000E+00  1.00000000E+00
  1.00000000E+00  2.54938145E-02  1.90373109E-01  8.52161486E-01  1.00000000E+00
  1.00000000E+00  1.00000000E+00  1.00000000E+00  2.54938145E-02  1.90373109E-01
  8.52161486E-01  1.00000000E+00  1.00000000E+00  1.00000000E+00  1.00000000E+00
  2.54938145E-02  1.90373109E-01  8.52161486E-01  1.00000000E+00  1.00000000E+00
  1.00000000E+00  1.00000000E+00  2.54938145E-02  1.90373109E-01  8.52161486E-01
  1.00000000E+00  1.00000000E+00  1.00000000E+00  1.00000000E+00  2.54938145E-02
  1.90373109E-01  8.52161486E-01  1.00000000E+00  1.00000000E+00  1.00000000E+00
  1.00000000E+00  7.38000247E-04  5.71800191E-03  2.94950099E-02  1.17286039E-01
  3.62949121E-01  5.84149195E-01  1.34176973E-01  6.24249876E-01  2.91755942E-01
  1.00000000E+00  1.00000000E+00  1.00000000E+00  1.00000000E+00  1.00000000E+00
  3.66556935E-03  2.83679194E-02  1.24756603E-01  3.39654631E-01  7.47585963E-01
 -1.57224381E+00  9.92388882E-01  1.00000000E+00  1.00000000E+00  1.00000000E+00
  1.00000000E+00
P(S=P) Contraction coefficients            R   N=         126
  0.00000000E+00  0.00000000E+00  0.00000000E+00  0.00000000E+00  0.00000000E+00
  0.00000000E+00  4.02486927E-02  2.37593957E-01  8.15853851E-01  1.00000000E+00
  1.00000000E+00  1.00000000E+00  0.00000000E+00  0.00000000E+00  0.00000000E+00
  0.00000000E+00  0.00000000E+00  0.00000000E+00  0.00000000E+00  4.02486927E-02
  2.37593957E-01  8.15853851E-01  1.00000000E+00  1.00000000E+00  1.00000000E+00
  0.00000000E+00  0.00000000E+00  0.00000000E+00  0.00000000E+00  0.00000000E+00
  0.00000000E+00  0.00000000E+00  4.02486927E-02  2.37593957E-01  8.15853851E-01
  1.00000000E+00  1.00000000E+00  1.00000000E+00  0.00000000E+00  0.00000000E+00
  0.00000000E+00  0.00000000E+00  0.00000000E+00  0.00000000E+00  0.00000000E+00
  4.02486927E-02  2.37593957E-01  8.15853851E-01  1.00000000E+00  1.00000000E+00
  1.00000000E+00  0.00000000E+00  0.00000000E+00  0.00000000E+00  0.00000000E+00
  0.00000000E+00  0.00000000E+00  0.00000000E+00  0.00000000E+00  0.00000000E+00
  0.00000000E+00  0.00000000E+00  0.00000000E+00  0.00000000E+00  0.00000000E+00
  0.00000000E+00  0.00000000E+00  0.00000000E+00  0.00000000E+00  0.00000000E+00
  0.00000000E+00  0.00000000E+00  0.00000000E+00  0.00000000E+00  0.00000000E+00
  0.00000000E+00  0.00000000E+00  0.00000000E+00  0.00000000E+00  0.00000000E+00
  0.00000000E+00  0.00000000E+00  0.00000000E+00  0.00000000E+00  0.00000000E+00
  0.00000000E+00  0.00000000E+00  0.00000000E+00  0.00000000E+00  0.00000000E+00
  0.00000000E+00  0.00000000E+00  0.00000000E+00  0.00000000E+00  0.00000000E+00
  0.00000000E+00  0.00000000E+00  0.00000000E+00  0.00000000E+00  0.00000000E+00
  0.00000000E+00  0.00000000E+00  0.00000000E+00  0.00000000E+00  0.00000000E+00
  0.00000000E+00  0.00000000E+00  0.00000000E+00  0.00000000E+00  0.00000000E+00
  0.00000000E+00  0.00000000E+00  0.00000000E+00  0.00000000E+00  1.00000000E+00
  0.00000000E+00  0.00000000E+00  0.00000000E+00  0.00000000E+00  0.00000000E+00
  0.00000000E+00  0.00000000E+00  0.00000000E+00  0.00000000E+00  0.00000000E+00
  0.00000000E+00
Coordinates of each shell                  R   N=         216
  3.90597571E-01  3.26796096E+00  2.09129291E-01  3.90597571E-01  3.26796096E+00
  2.09129291E-01  3.90597571E-01  3.26796096E+00  2.09129291E-01  3.90597571E-01
  3.26796096E+00  2.09129291E-01  3.90597571E-01  3.26796096E+00  2.09129291E-01
  3.90597571E-01  3.26796096E+00  2.09129291E-01 -2.73251827E-02  5.25388945E-01
 -5.96632107E-01 -2.73251827E-02  5.25388945E-01 -5.96632107E-01 -2.73251827E-02
  5.25388945E-01 -5.96632107E-01 -2.73251827E-02  5.25388945E-01 -5.96632107E-01
 -2.73251827E-02  5.25388945E-01 -5.96632107E-01 -2.73251827E-02  5.25388945E-01
 -5.96632107E-01 -2.17295125E+00 -6.92007556E-01  7.85019739E-01 -2.17295125E+00
 -6.92007556E-01  7.85019739E-01 -2.17295125E+00 -6.92007556E-01  7.85019739E-01
 -2.17295125E+00 -6.92007556E-01  7.85019739E-01 -2.17295125E+00 -6.92007556E-01
  7.85019739E-01 -2.17295125E+00 -6.92007556E-01  7.85019739E-01 -4.52136702E+00
 -9.81992498E-01 -2.98298092E-01 -4.52136702E+00 -9.81992498E-01 -2.98298092E-01
 -4.52136702E+00 -9.81992498E-01 -2.98298092E-01 -4.52136702E+00 -9.81992498E-01
 -2.98298092E-01 -4.52136702E+00 -9.81992498E-01 -2.98298092E-01 -4.52136702E+00
 -9.81992498E-01 -2.98298092E-01 -4.97062943E+00 -4.79930016E-01 -2.31544041E+00
 -4.97062943E+00 -4.79930016E-01 -2.31544041E+00 -4.97062943E+00 -4.79930016E-01
 -2.31544041E+00 -4.97062943E+00 -4.79930016E-01 -2.31544041E+00 -4.97062943E+00
 -4.79930016E-01 -2.31544041E+00  2.01169614E+00  4.08653200E+00 -7.73352882E-01
  2.01169614E+00  4.08653200E+00 -7.73352882E-01  2.01169614E+00  4.08653200E+00
 -7.73352882E-01  2.01169614E+00  4.08653200E+00 -7.73352882E-01  2.01169614E+00
  4.08653200E+00 -7.73352882E-01 -6.08508644E+00 -1.72400170E+00  7.97281829E-01
 -6.08508644E+00 -1.72400170E+00  7.97281829E-01 -6.08508644E+00 -1.72400170E+00
  7.97281829E-01 -6.08508644E+00 -1.72400170E+00  7.97281829E-01 -6.08508644E+00
 -1.72400170E+00  7.97281829E-01 -1.77477355E+00 -1.19803704E+00  2.80403253E+00
 -1.77477355E+00 -1.19803704E+00  2.80403253E+00 -1.77477355E+00 -1.19803704E+00
  2.80403253E+00 -1.77477355E+00 -1.19803704E+00  2.80403253E+00 -1.77477355E+00
 -1.19803704E+00  2.80403253E+00 -3.21462009E-01  4.03479157E-01 -2.63164073E+00
 -3.21462009E-01  4.03479157E-01 -2.63164073E+00 -3.21462009E-01  4.03479157E-01
 -2.63164073E+00 -3.21462009E-01  4.03479157E-01 -2.63164073E+00 -3.21462009E-01
  4.03479157E-01 -2.63164073E+00  7.23132010E-01  3.40265967E+00  2.24410447E+00
  7.23132010E-01  3.40265967E+00  2.24410447E+00  7.23132010E-01  3.40265967E+00
  2.24410447E+00  7.23132010E-01  3.40265967E+00  2.24410447E+00  7.23132010E-01
  3.40265967E+00  2.24410447E+00 -1.30294238E+00  4.37151396E+00 -2.52331589E-01
 -1.30294238E+00  4.37151396E+00 -2.52331589E-01 -1.30294238E+00  4.37151396E+00
 -2.52331589E-01 -1.30294238E+00  4.37151396E+00 -2.52331589E-01 -1.30294238E+00
  4.37151396E+00 -2.52331589E-01  2.92390241E+00 -1.26931265E+00 -2.75274236E-02
  2.92390241E+00 -1.26931265E+00 -2.75274236E-02  2.92390241E+00 -1.26931265E+00
 -2.75274236E-02  2.92390241E+00 -1.26931265E+00 -2.75274236E-02  2.92390241E+00
 -1.26931265E+00 -2.75274236E-02  2.92390241E+00 -1.26931265E+00 -2.75274236E-02
  2.92390241E+00 -1.26931265E+00 -2.75274236E-02  2.92390241E+00 -1.26931265E+00
 -2.75274236E-02  2.92390241E+00 -1.26931265E+00 -2.75274236E-02  2.92390241E+00
 -1.26931265E+00 -2.75274236E-02  2.92390241E+00 -1.26931265E+00 -2.75274236E-02
  2.92390241E+00 -1.26931265E+00 -2.75274236E-02  2.92390241E+00 -1.26931265E+00
 -2.75274236E-02
Constraint Structure                       R   N=          36
  3.90597571E-01  3.26796096E+00  2.09129291E-01 -2.73251827E-02  5.25388945E-01
 -5.96632107E-01 -2.17295125E+00 -6.92007556E-01  7.85019739E-01 -4.52136702E+00
 -9.81992498E-01 -2.98298092E-01 -4.97062943E+00 -4.79930016E-01 -2.31544041E+00
  2.01169614E+00  4.08653200E+00 -7.73352882E-01 -6.08508644E+00 -1.72400170E+00
  7.97281829E-01 -1.77477355E+00 -1.19803704E+00  2.80403253E+00 -3.21462009E-01
  4.03479157E-01 -2.63164073E+00  7.23132010E-01  3.40265967E+00  2.24410447E+00
 -1.30294238E+00  4.37151396E+00 -2.52331589E-01  2.92390241E+00 -1.26931265E+00
 -2.75274236E-02
Num ILSW                                   I              100
ILSW                                       I   N=         100
           0           0           0           0           2           0
           0           0           0           0         402          -1
           5           0           0           0           0           0
           0           0           0           0           0           0
           1           0           0           0           0           0
           0           0      100000           0          -1           0
           0           0           0           0           0           0
           0           0           0           1           0           0
           0           0           1           0           0           0
           0           0           4          41           0           0
           0           0           5           0           0           0
           0           0           0           0           0           0
           0           0           0           0           0           0
           0           0           0           0           0           0
           0           0           0           0           0           0
           0           0           0           0           0           0
           0           0           0           0
Num RLSW                                   I               41
RLSW                                       R   N=          41
  8.00000000E-01  7.20000000E-01  1.00000000E+00  8.10000000E-01  2.00000000E-01
  0.00000000E+00  0.00000000E+00  1.00000000E+00  0.00000000E+00  0.00000000E+00
  0.00000000E+00  0.00000000E+00  1.00000000E+00  0.00000000E+00  0.00000000E+00
  0.00000000E+00  0.00000000E+00  1.00000000E+00  0.00000000E+00  0.00000000E+00
  0.00000000E+00  0.00000000E+00  1.00000000E+00  0.00000000E+00  0.00000000E+00
  0.00000000E+00  0.00000000E+00  1.00000000E+00  0.00000000E+00  0.00000000E+00
  0.00000000E+00  0.00000000E+00  0.00000000E+00  0.00000000E+00  0.00000000E+00
  0.00000000E+00  0.00000000E+00  0.00000000E+00  1.00000000E+00  1.00000000E+00
  0.00000000E+00
MxBond                                     I                4
NBond                                      I   N=          12
           4           4           3           3           1           1
           1           1           1           1           1           1
IBond                                      I   N=          48
           2           6          10          11           1           3
           9          12           2           4           8           0
           3           5           7           0           4           0
           0           0           1           0           0           0
           4           0           0           0           3           0
           0           0           2           0           0           0
           1           0           0           0           1           0
           0           0           2           0           0           0
RBond                                      R   N=          48
  1.00000000E+00  1.00000000E+00  1.00000000E+00  1.00000000E+00  1.00000000E+00
  1.00000000E+00  1.00000000E+00  1.00000000E+00  1.00000000E+00  1.50000000E+00
  1.00000000E+00  0.00000000E+00  1.50000000E+00  1.00000000E+00  1.00000000E+00
  0.00000000E+00  1.00000000E+00  0.00000000E+00  0.00000000E+00  0.00000000E+00
  1.00000000E+00  0.00000000E+00  0.00000000E+00  0.00000000E+00  1.00000000E+00
  0.00000000E+00  0.00000000E+00  0.00000000E+00  1.00000000E+00  0.00000000E+00
  0.00000000E+00  0.00000000E+00  1.00000000E+00  0.00000000E+00  0.00000000E+00
  0.00000000E+00  1.00000000E+00  0.00000000E+00  0.00000000E+00  0.00000000E+00
  1.00000000E+00  0.00000000E+00  0.00000000E+00  0.00000000E+00  1.00000000E+00
  0.00000000E+00  0.00000000E+00  0.00000000E+00
Virial Ratio                               R      2.003446935907719E+00
SCF Energy                                 R     -6.168901119363613E+02
Total Energy                               R     -6.168901119363613E+02
RMS Density                                R      9.696164192054569E-12
Nuclear derivative order                   I                0
External E-field                           R   N=          35
  0.00000000E+00  0.00000000E+00  0.00000000E+00  0.00000000E+00  0.00000000E+00
  0.00000000E+00  0.00000000E+00  0.00000000E+00  0.00000000E+00  0.00000000E+00
  0.00000000E+00  0.00000000E+00  0.00000000E+00  0.00000000E+00  0.00000000E+00
  0.00000000E+00  0.00000000E+00  0.00000000E+00  0.00000000E+00  0.00000000E+00
  0.00000000E+00  0.00000000E+00  0.00000000E+00  0.00000000E+00  0.00000000E+00
  0.00000000E+00  0.00000000E+00  0.00000000E+00  0.00000000E+00  0.00000000E+00
  0.00000000E+00  0.00000000E+00  0.00000000E+00  0.00000000E+00  0.00000000E+00
IOpCl                                      I                0
IROHF                                      I                0
Alpha Orbital Energies                     R   N=         167
 -1.01535961E+02 -1.02491062E+01 -1.02059623E+01 -1.01949457E+01 -1.01821146E+01
 -9.45030916E+00 -7.21467682E+00 -7.20520913E+00 -7.20507882E+00 -8.66812434E-01
 -7.82276253E-01 -7.36724311E-01 -6.40625631E-01 -5.73941255E-01 -4.83765202E-01
 -4.71450088E-01 -4.37113599E-01 -4.23310634E-01 -4.03246958E-01 -3.71880635E-01
 -3.67550514E-01 -3.06001329E-01 -2.99482708E-01 -2.75778324E-01 -3.63393841E-02
 -8.26353924E-03  4.46395685E-03  7.04517008E-03  1.61637219E-02  2.44008690E-02
  3.90492302E-02  4.46285095E-02  5.77344167E-02  6.61239787E-02  7.19280108E-02
  8.20792876E-02  8.57683633E-02  9.57576286E-02  1.11399914E-01  1.14552018E-01
  1.18075331E-01  1.23156301E-01  1.28309604E-01  1.28529829E-01  1.32212112E-01
  1.41165242E-01  1.50043947E-01  1.57387050E-01  1.58408156E-01  1.70147282E-01
  1.73233635E-01  1.77558202E-01  1.90980957E-01  2.08446933E-01  2.11637302E-01
  2.18786102E-01  2.48418319E-01  2.58440270E-01  2.71406531E-01  2.96954376E-01
  3.26908876E-01  3.48276873E-01  3.67924826E-01  4.26019407E-01  4.26867443E-01
  4.42467271E-01  4.54467271E-01  4.76936537E-01  4.92391325E-01  4.95061451E-01
  5.20188279E-01  5.20291899E-01  5.62765091E-01  5.79172435E-01  6.02182929E-01
  6.23101185E-01  6.35526501E-01  6.41091109E-01  6.55947776E-01  6.62452623E-01
  6.84205827E-01  6.99818262E-01  7.10308298E-01  7.22730089E-01  7.80984978E-01
  8.16031497E-01  8.34798379E-01  8.70555594E-01  8.88565684E-01  8.99303876E-01
  9.28765070E-01  9.73232518E-01  1.00799463E+00  1.02915192E+00  1.06721194E+00
  1.07655718E+00  1.09146001E+00  1.18756888E+00  1.21749044E+00  1.27178542E+00
  1.38947797E+00  1.43054321E+00  1.44845334E+00  1.46080636E+00  1.49869327E+00
  1.53465506E+00  1.55895016E+00  1.57321945E+00  1.57794505E+00  1.60870480E+00
  1.64905649E+00  1.66071791E+00  1.68926891E+00  1.72852493E+00  1.76930902E+00
  1.79325020E+00  1.86464153E+00  1.88274328E+00  1.92540041E+00  1.98670829E+00
  1.98992383E+00  2.06830987E+00  2.10057148E+00  2.12474351E+00  2.15919953E+00
  2.18148737E+00  2.23108523E+00  2.29030612E+00  2.30349302E+00  2.34767978E+00
  2.37426565E+00  2.44240442E+00  2.45569878E+00  2.49785380E+00  2.52815258E+00
  2.54604533E+00  2.57836231E+00  2.58507985E+00  2.59702235E+00  2.62716031E+00
  2.69140185E+00  2.72150063E+00  2.74780167E+00  2.77089685E+00  2.83128535E+00
  2.84241898E+00  2.92942416E+00  3.02713136E+00  3.06414877E+00  3.17614421E+00
  3.35108188E+00  3.45344942E+00  3.67533742E+00  3.78781869E+00  3.79323209E+00
  3.91790229E+00  4.11307281E+00  4.25282471E+00  9.75078521E+00  2.37017954E+01
  2.37815344E+01  2.39389338E+01  2.40826164E+01  2.59337684E+01  2.59599102E+01
  2.64643937E+01  2.15739936E+02
Alpha MO coefficients                      R   N=       27889
  1.53669408E-07 -3.02141602E-07 -2.33375754E-06 -2.92314028E-06 -2.11570501E-06
 -8.64016359E-07  1.72590661E-05  2.00291719E-05  1.33334854E-05  1.03286138E-05
  2.97527024E-05  2.50890260E-05  1.55304147E-05 -1.76853093E-03 -1.64009681E-04
  4.89861809E-04  3.19116318E-05  5.68382170E-06 -2.67856456E-06 -5.68047783E-06
  1.18643440E-05  4.57377385E-06  1.69084703E-06 -3.65889122E-06  1.62152333E-05
 -8.62948492E-06  4.72749616E-06 -1.61929024E-05 -2.68602072E-05  1.10769111E-05
 -1.86714100E-05  2.45456124E-04  1.22894687E-04 -9.84627141E-05 -1.34621910E-05
  2.84182388E-03 -5.37124903E-04  4.58932470E-04  7.21744135E-04  8.68553274E-06
 -2.69104084E-06  2.64732632E-06 -3.61837188E-06  8.06721840E-06 -1.25384188E-07
  3.57061815E-07  5.84657746E-06 -9.14625003E-07 -3.30904761E-06  6.39825161E-06
 -2.81299087E-05  1.47934462E-06  1.75839314E-05 -1.25950350E-04  4.88753463E-05
 -1.01798606E-05  5.22161354E-05 -4.13120746E-04 -1.17811956E-03 -2.98435609E-04
 -1.01169193E-04  2.53214023E-06  7.07538933E-06 -8.21236776E-06 -1.92205595E-06
 -9.04198413E-06 -1.97805094E-07  5.08108082E-07 -2.25998391E-06  6.77997435E-07
 -3.90730809E-07 -3.88407356E-06  6.35499412E-06 -2.59391705E-06  1.71032835E-06
  9.24637285E-05  1.86724678E-05  1.06898333E-06  3.41643273E-07 -1.72094108E-03
 -3.63661218E-04 -7.52010933E-05 -2.53611198E-04 -7.03132627E-07 -2.69445547E-06
 -3.17818393E-06  4.71168455E-07 -1.23819120E-06 -1.46181310E-06  1.81343712E-06
 -3.78584402E-05 -6.71476725E-05 -1.22246965E-07 -3.01240059E-06 -6.61889731E-07
  1.21951169E-05 -8.35625987E-05  9.64266810E-05  1.59270516E-04  6.10922919E-06
  1.43211581E-05 -1.01417139E-05 -6.10167065E-07 -3.22019195E-06 -3.28907005E-06
 -5.03786251E-05 -1.76752659E-06  8.43486166E-07 -3.28635169E-08  6.57406007E-06
 -4.71869026E-05  1.40681827E-05  9.45143242E-05 -9.42443608E-06 -3.66080038E-06
  1.10184027E-05  4.39467517E-07 -7.12467059E-05 -9.00636477E-05  1.80220368E-04
 -7.26946757E-06  1.63184759E-06 -1.74527336E-05  1.09095242E-05 -6.43558634E-05
  2.55338413E-05  1.11739797E-04 -6.04537434E-06  1.09512244E-05  1.58201881E-05
 -7.02560848E-06  3.25304239E-05 -9.16162324E-05 -2.57059488E-04  1.12195816E-06
 -5.23909397E-06 -2.91254788E-07  4.11609703E-01  6.54076296E-01  1.50030574E-02