 Entering Gaussian System, Link 0=g09
 Input=input.dat
 Output=output.dat
 Initial command:
 /cerebro/home/software/apps/g09/l1.exe /scratch/crawdad/Gau-6333.inp -scrdir=/scratch/crawdad/
 Entering Link 1 = /cerebro/home/software/apps/g09/l1.exe PID=      6337.
  
 Copyright (c) 1988,1990,1992,1993,1995,1998,2003,2009, Gaussian, Inc.
                  All Rights Reserved.
  
 This is part of the Gaussian(R) 09 program.  It is based on
 the Gaussian(R) 03 system (copyright 2003, Gaussian, Inc.),
 the Gaussian(R) 98 system (copyright 1998, Gaussian, Inc.),
 the Gaussian(R) 94 system (copyright 1995, Gaussian, Inc.),
 the Gaussian 92(TM) system (copyright 1992, Gaussian, Inc.),
 the Gaussian 90(TM) system (copyright 1990, Gaussian, Inc.),
 the Gaussian 88(TM) system (copyright 1988, Gaussian, Inc.),
 the Gaussian 86(TM) system (copyright 1986, Carnegie Mellon
 University), and the Gaussian 82(TM) system (copyright 1983,
 Carnegie Mellon University). Gaussian is a federally registered
 trademark of Gaussian, Inc.
  
 This software contains proprietary and confidential information,
 including trade secrets, belonging to Gaussian, Inc.
  
 This software is provided under written license and may be
 used, copied, transmitted, or stored only in accord with that
 written license.
  
 The following legend is applicable only to US Government
 contracts under FAR:
  
                    RESTRICTED RIGHTS LEGEND
  
 Use, reproduction and disclosure by the US Government is
 subject to restrictions as set forth in subparagraphs (a)
 and (c) of the Commercial Computer Software - Restricted
 Rights clause in FAR 52.227-19.
  
 Gaussian, Inc.
 340 Quinnipiac St., Bldg. 40, Wallingford CT 06492
  
  
 ---------------------------------------------------------------
 Warning -- This program may not be used in any manner that
 competes with the business of Gaussian, Inc. or will provide
 assistance to any competitor of Gaussian, Inc.  The licensee
 of this program is prohibited from giving any competitor of
 Gaussian, Inc. access to this program.  By using this program,
 the user acknowledges that Gaussian, Inc. is engaged in the
 business of creating and licensing software in the field of
 computational chemistry and represents and warrants to the
 licensee that it is not a competitor of Gaussian, Inc. and that
 it will not use this program in any manner prohibited above.
 ---------------------------------------------------------------
  

 Cite this work as:
 Gaussian 09, Revision A.02,
 M. J. Frisch, G. W. Trucks, H. B. Schlegel, G. E. Scuseria, 
 M. A. Robb, J. R. Cheeseman, G. Scalmani, V. Barone, B. Mennucci, 
 G. A. Petersson, H. Nakatsuji, M. Caricato, X. Li, H. P. Hratchian, 
 A. F. Izmaylov, J. Bloino, G. Zheng, J. L. Sonnenberg, M. Hada, 
 M. Ehara, K. Toyota, R. Fukuda, J. Hasegawa, M. Ishida, T. Nakajima, 
 Y. Honda, O. Kitao, H. Nakai, T. Vreven, J. A. Montgomery, Jr., 
 J. E. Peralta, F. Ogliaro, M. Bearpark, J. J. Heyd, E. Brothers, 
 K. N. Kudin, V. N. Staroverov, R. Kobayashi, J. Normand, 
 K. Raghavachari, A. Rendell, J. C. Burant, S. S. Iyengar, J. Tomasi, 
 M. Cossi, N. Rega, J. M. Millam, M. Klene, J. E. Knox, J. B. Cross, 
 V. Bakken, C. Adamo, J. Jaramillo, R. Gomperts, R. E. Stratmann, 
 O. Yazyev, A. J. Austin, R. Cammi, C. Pomelli, J. W. Ochterski, 
 R. L. Martin, K. Morokuma, V. G. Zakrzewski, G. A. Voth, 
 P. Salvador, J. J. Dannenberg, S. Dapprich, A. D. Daniels, 
 O. Farkas, J. B. Foresman, J. V. Ortiz, J. Cioslowski, 
 and D. J. Fox, Gaussian, Inc., Wallingford CT, 2009.
 
 ******************************************
 Gaussian 09:  EM64L-G09RevA.02 11-Jun-2009
                10-Jul-2013 
 ******************************************
 %chk=vibave
 %mem=1000mb
 %nproc=1
 Will use up to    1 processors via shared memory.
 ----------------------------------------------------------------------
 #P B3LYP/6-311++G** scf(conver=11) int=ultrafine polar=optrot cphf(rdf
 req,conver=11)
 ----------------------------------------------------------------------
 1/38=1,83=21/1;
 2/12=2,17=6,18=5,40=1/2;
 3/5=4,6=6,7=1111,11=2,16=1,25=1,30=1,36=2,74=-5,75=-5/1,2,3;
 4//1;
 5/5=2,6=11,38=5,96=-2,98=1/2;
 8/6=4,10=90,11=11/1;
 10/6=1,7=11,13=10,46=8,60=-2,72=3/2;
 6/7=2,8=2,9=2,10=2,28=1/1;
 99/5=1,9=1/99;
 Leave Link    1 at Wed Jul 10 16:50:10 2013, MaxMem=  131072000 cpu:       0.0
 (Enter /cerebro/home/software/apps/g09/l101.exe)
 -----------------------------
 (R)-3-chloro-1-butene tau=120
 -----------------------------
 Symbolic Z-matrix:
 Charge =  0 Multiplicity = 1
 C                     0.46573   1.7533    0.04538 
 C                     0.00612   0.35034  -0.32215 
 C                    -1.20573  -0.09679   0.42596 
 C                    -2.33295  -0.49808  -0.15615 
 H                    -2.42784  -0.55133  -1.23041 
 H                     1.4169    2.03414  -0.53456 
 H                    -3.19429  -0.78761   0.42427 
 H                    -1.12765  -0.06074   1.52147 
 H                    -0.15894   0.25521  -1.42308 
 H                     0.66673   1.82869   1.0683 
 H                    -0.31818   2.46805  -0.21159 
 Cl                    1.38606  -0.83737   0.02287 
 
 NAtoms=     12 NQM=     12 NQMF=      0 NMic=      0 NMicF=      0 NTot=     12.
                    Isotopes and Nuclear Properties:
 (Nuclear quadrupole moments (NQMom) in fm**2, nuclear magnetic moments (NMagM)
  in nuclear magnetons)

  Atom         1           2           3           4           5           6           7           8           9          10
 IAtWgt=          12          12          12          12           1           1           1           1           1           1
 AtmWgt=  12.0000000  12.0000000  12.0000000  12.0000000   1.0078250   1.0078250   1.0078250   1.0078250   1.0078250   1.0078250
 NucSpn=           0           0           0           0           1           1           1           1           1           1
 AtZEff=   0.0000000   0.0000000   0.0000000   0.0000000   0.0000000   0.0000000   0.0000000   0.0000000   0.0000000   0.0000000
 NQMom=    0.0000000   0.0000000   0.0000000   0.0000000   0.0000000   0.0000000   0.0000000   0.0000000   0.0000000   0.0000000
 NMagM=    0.0000000   0.0000000   0.0000000   0.0000000   2.7928460   2.7928460   2.7928460   2.7928460   2.7928460   2.7928460

  Atom        11          12
 IAtWgt=           1          35
 AtmWgt=   1.0078250  34.9688527
 NucSpn=           1           3
 AtZEff=   0.0000000   0.0000000
 NQMom=    0.0000000  -8.1650000
 NMagM=    2.7928460   0.8218740
 Using perturbation frequencies:    0.071980    0.077357    0.104503    0.128347
 Leave Link  101 at Wed Jul 10 16:50:11 2013, MaxMem=  131072000 cpu:       0.3
 (Enter /cerebro/home/software/apps/g09/l202.exe)
                          Input orientation:                          
 ---------------------------------------------------------------------
 Center     Atomic      Atomic             Coordinates (Angstroms)
 Number     Number       Type             X           Y           Z
 ---------------------------------------------------------------------
      1          6           0        0.465729    1.753304    0.045382
      2          6           0        0.006120    0.350339   -0.322145
      3          6           0       -1.205727   -0.096788    0.425960
      4          6           0       -2.332945   -0.498084   -0.156154
      5          1           0       -2.427838   -0.551327   -1.230406
      6          1           0        1.416903    2.034136   -0.534561
      7          1           0       -3.194286   -0.787611    0.424268
      8          1           0       -1.127649   -0.060740    1.521470
      9          1           0       -0.158939    0.255213   -1.423082
     10          1           0        0.666728    1.828694    1.068301
     11          1           0       -0.318184    2.468048   -0.211588
     12         17           0        1.386062   -0.837372    0.022872
 ---------------------------------------------------------------------
                    Distance matrix (angstroms):
                    1          2          3          4          5
     1  C    0.000000
     2  C    1.521390   0.000000
     3  C    2.522190   1.492702   0.000000
     4  C    3.597491   2.493713   1.330608   0.000000
     5  H    3.913015   2.749926   2.108011   1.079748   0.000000
     6  H    1.148883   2.206944   3.513065   4.540561   4.685174
     7  H    4.471634   3.477738   2.105138   1.078250   1.838809
     8  H    2.829919   2.203028   1.098880   2.111500   3.082854
     9  H    2.188806   1.117298   2.153748   2.626570   2.415685
    10  H    1.045202   2.134310   2.761553   3.988888   4.530441
    11  H    1.091519   2.145248   2.787936   3.586123   3.821682
    12  Cl   2.749386   1.853088   2.725493   3.738741   4.024719
                    6          7          8          9         10
     6  H    0.000000
     7  H    5.490416   0.000000
     8  H    3.884651   2.450139   0.000000
     9  H    2.537186   3.703177   3.115865   0.000000
    10  H    1.781610   4.708212   2.644828   3.060157   0.000000
    11  H    1.817448   4.390397   3.170724   2.527789   1.736935
    12  Cl   2.925277   4.598172   3.027820   2.381503   2.952673
                   11         12
    11  H    0.000000
    12  Cl   3.726289   0.000000
 Stoichiometry    C4H7Cl
 Framework group  C1[X(C4H7Cl)]
 Deg. of freedom    30
 Full point group                 C1      NOp   1
 Largest Abelian subgroup         C1      NOp   1
 Largest concise Abelian subgroup C1      NOp   1
                         Standard orientation:                         
 ---------------------------------------------------------------------
 Center     Atomic      Atomic             Coordinates (Angstroms)
 Number     Number       Type             X           Y           Z
 ---------------------------------------------------------------------
      1          6           0        0.467188    1.752629    0.050003
      2          6           0        0.006395    0.350877   -0.320658
      3          6           0       -1.206607   -0.096388    0.425492
      4          6           0       -2.333734   -0.495335   -0.158411
      5          1           0       -2.427718   -0.546392   -1.232848
      6          1           0        1.419185    2.033557   -0.528541
      7          1           0       -3.195908   -0.785054    0.420676
      8          1           0       -1.129475   -0.062549    1.521139
      9          1           0       -0.157777    0.258065   -1.421925
     10          1           0        0.667348    1.825819    1.073246
     11          1           0       -0.315722    2.468718   -0.206284
     12         17           0        1.384742   -0.838992    0.023293
 ---------------------------------------------------------------------
 Rotational constants (GHZ):      5.5577158      2.7444782      2.0019817
 Leave Link  202 at Wed Jul 10 16:50:11 2013, MaxMem=  131072000 cpu:       0.0
 (Enter /cerebro/home/software/apps/g09/l301.exe)
 Standard basis: 6-311++G(d,p) (5D, 7F)
 Ernie: Thresh=  0.10000D-02 Tol=  0.10000D-05 Strict=F.
 There are   167 symmetry adapted basis functions of A   symmetry.
 Integral buffers will be    131072 words long.
 Raffenetti 2 integral format.
 Two-electron integral symmetry is turned on.
   167 basis functions,   260 primitive gaussians,   172 cartesian basis functions
    24 alpha electrons       24 beta electrons
       nuclear repulsion energy       211.5676715457 Hartrees.
 IExCor=  402 DFT=T Ex+Corr=B3LYP ExCW=0 ScaHFX=  0.200000
 ScaDFX=  0.800000  0.720000  1.000000  0.810000 ScalE2=  1.000000  1.000000
 IRadAn=      5 IRanWt=     -1 IRanGd=            0 ICorTp=0
 NAtoms=   12 NActive=   12 NUniq=   12 SFac= 7.50D-01 NAtFMM=   80 NAOKFM=F Big=F
 Leave Link  301 at Wed Jul 10 16:50:11 2013, MaxMem=  131072000 cpu:       0.2
 (Enter /cerebro/home/software/apps/g09/l302.exe)
 NPDir=0 NMtPBC=     1 NCelOv=     1 NCel=       1 NClECP=     1 NCelD=      1
         NCelK=      1 NCelE2=     1 NClLst=     1 CellRange=     0.0.
 One-electron integrals computed using PRISM.
 NBasis=   167 RedAO= T  NBF=   167
 NBsUse=   167 1.00D-06 NBFU=   167
 Precomputing XC quadrature grid using
 IXCGrd= 2 IRadAn=           5 IRanWt=          -1 IRanGd=           0 AccXCQ= 1.00D-10.
 NRdTot=    1019 NPtTot=      274288 NUsed=      281590 NTot=      281622
 NSgBfM=   172   172   172   172   172 NAtAll=    12    12.
 Leave Link  302 at Wed Jul 10 16:50:12 2013, MaxMem=  131072000 cpu:       0.6
 (Enter /cerebro/home/software/apps/g09/l303.exe)
 DipDrv:  MaxL=2.
 Leave Link  303 at Wed Jul 10 16:50:12 2013, MaxMem=  131072000 cpu:       0.1
 (Enter /cerebro/home/software/apps/g09/l401.exe)
 Harris functional with IExCor=  402 diagonalized for initial guess.
 ExpMin= 3.60D-02 ExpMax= 1.06D+05 ExpMxC= 3.62D+03 IAcc=3 IRadAn=         5 AccDes= 0.00D+00
 HarFok:  IExCor=  402 AccDes= 0.00D+00 IRadAn=         5 IDoV= 1
 ScaDFX=  1.000000  1.000000  1.000000  1.000000
 FoFCou: FMM=F IPFlag=           0 FMFlag=      100000 FMFlg1=           0
         NFxFlg=           0 DoJE=T BraDBF=F KetDBF=T FulRan=T
         Omega=  0.000000  0.000000  1.000000  0.000000  0.000000 ICntrl=     500 IOpCl=  0
         NMat0=    1 NMatS0=    1 NMatT0=    0 NMatD0=    1 NMtDS0=    0 NMtDT0=    0
         I1Cent=           4 NGrid=           0.
 Petite list used in FoFCou.
 Harris En= -616.910213539713    
 Initial guess orbital symmetries:
       Occupied  (A) (A) (A) (A) (A) (A) (A) (A) (A) (A) (A) (A)
                 (A) (A) (A) (A) (A) (A) (A) (A) (A) (A) (A) (A)
       Virtual   (A) (A) (A) (A) (A) (A) (A) (A) (A) (A) (A) (A)
                 (A) (A) (A) (A) (A) (A) (A) (A) (A) (A) (A) (A)
                 (A) (A) (A) (A) (A) (A) (A) (A) (A) (A) (A) (A)
                 (A) (A) (A) (A) (A) (A) (A) (A) (A) (A) (A) (A)
                 (A) (A) (A) (A) (A) (A) (A) (A) (A) (A) (A) (A)
                 (A) (A) (A) (A) (A) (A) (A) (A) (A) (A) (A) (A)
                 (A) (A) (A) (A) (A) (A) (A) (A) (A) (A) (A) (A)
                 (A) (A) (A) (A) (A) (A) (A) (A) (A) (A) (A) (A)
                 (A) (A) (A) (A) (A) (A) (A) (A) (A) (A) (A) (A)
                 (A) (A) (A) (A) (A) (A) (A) (A) (A) (A) (A) (A)
                 (A) (A) (A) (A) (A) (A) (A) (A) (A) (A) (A) (A)
                 (A) (A) (A) (A) (A) (A) (A) (A) (A) (A) (A)
 The electronic state of the initial guess is 1-A.
 Leave Link  401 at Wed Jul 10 16:50:20 2013, MaxMem=  131072000 cpu:       7.3
 (Enter /cerebro/home/software/apps/g09/l502.exe)
 Closed shell SCF:
 Requested convergence on RMS density matrix=1.00D-11 within 128 cycles.
 Requested convergence on MAX density matrix=1.00D-09.
 Requested convergence on             energy=1.00D-09.
 No special actions if energy rises.
 Using DIIS extrapolation, IDIIS=  1040.
 Integral symmetry usage will be decided dynamically.
       281469 words used for storage of precomputed grid.
 Keep R1 ints in memory in canonical form, NReq=113664361.
 IEnd=      390694 IEndB=      390694 NGot=   131072000 MDV=    20042794
 LenX=    20042794 LenY=    20012769
 Symmetry not used in FoFDir.
 MinBra= 0 MaxBra= 2 Meth= 1.
 IRaf=       0 NMat=   1 IRICut=       1 DoRegI=T DoRafI=F ISym2E= 0 JSym2E=0.

 Cycle   1  Pass 1  IDiag  1:
 E= -616.718717665179    
 DIIS: error= 2.32D-02 at cycle   1 NSaved=   1.
 NSaved= 1 IEnMin= 1 EnMin= -616.718717665179     IErMin= 1 ErrMin= 2.32D-02
 ErrMax= 2.32D-02 EMaxC= 1.00D-01 BMatC= 2.05D-01 BMatP= 2.05D-01
 IDIUse=3 WtCom= 7.68D-01 WtEn= 2.32D-01
 Coeff-Com:  0.100D+01
 Coeff-En:   0.100D+01
 Coeff:      0.100D+01
 Gap=     0.399 Goal=   None    Shift=    0.000
 GapD=    0.399 DampG=1.000 DampE=0.500 DampFc=0.5000 IDamp=-1.
 Damping current iteration by 5.00D-01
 RMSDP=6.37D-03 MaxDP=1.47D-01              OVMax= 2.25D-01

 Cycle   2  Pass 1  IDiag  1:
 E= -616.790420297532     Delta-E=       -0.071702632353 Rises=F Damp=T
 DIIS: error= 5.70D-03 at cycle   2 NSaved=   2.
 NSaved= 2 IEnMin= 2 EnMin= -616.790420297532     IErMin= 2 ErrMin= 5.70D-03
 ErrMax= 5.70D-03 EMaxC= 1.00D-01 BMatC= 1.28D-02 BMatP= 2.05D-01
 IDIUse=3 WtCom= 9.43D-01 WtEn= 5.70D-02
 Coeff-Com:  0.395D-01 0.961D+00
 Coeff-En:   0.182D+00 0.818D+00
 Coeff:      0.476D-01 0.952D+00
 Gap=     0.286 Goal=   None    Shift=    0.000
 RMSDP=4.39D-03 MaxDP=1.99D-01 DE=-7.17D-02 OVMax= 1.28D-01

 Cycle   3  Pass 1  IDiag  1:
 E= -616.886116485014     Delta-E=       -0.095696187482 Rises=F Damp=F
 DIIS: error= 6.05D-03 at cycle   3 NSaved=   3.
 NSaved= 3 IEnMin= 3 EnMin= -616.886116485014     IErMin= 2 ErrMin= 5.70D-03
 ErrMax= 6.05D-03 EMaxC= 1.00D-01 BMatC= 5.15D-03 BMatP= 1.28D-02
 IDIUse=3 WtCom= 9.39D-01 WtEn= 6.05D-02
 Coeff-Com: -0.622D-01 0.345D+00 0.717D+00
 Coeff-En:   0.000D+00 0.000D+00 0.100D+01
 Coeff:     -0.584D-01 0.324D+00 0.734D+00
 Gap=     0.259 Goal=   None    Shift=    0.000
 RMSDP=1.87D-03 MaxDP=6.05D-02 DE=-9.57D-02 OVMax= 2.86D-02

 Cycle   4  Pass 1  IDiag  1:
 E= -616.889992506834     Delta-E=       -0.003876021820 Rises=F Damp=F
 DIIS: error= 3.39D-03 at cycle   4 NSaved=   4.
 NSaved= 4 IEnMin= 4 EnMin= -616.889992506834     IErMin= 4 ErrMin= 3.39D-03
 ErrMax= 3.39D-03 EMaxC= 1.00D-01 BMatC= 2.01D-03 BMatP= 5.15D-03
 IDIUse=3 WtCom= 9.66D-01 WtEn= 3.39D-02
 Coeff-Com: -0.376D-01 0.125D+00 0.448D+00 0.465D+00
 Coeff-En:   0.000D+00 0.000D+00 0.250D+00 0.750D+00
 Coeff:     -0.363D-01 0.121D+00 0.441D+00 0.475D+00
 Gap=     0.247 Goal=   None    Shift=    0.000
 RMSDP=5.65D-04 MaxDP=1.79D-02 DE=-3.88D-03 OVMax= 1.29D-02

 Cycle   5  Pass 1  IDiag  1:
 E= -616.891880380427     Delta-E=       -0.001887873593 Rises=F Damp=F
 DIIS: error= 5.95D-04 at cycle   5 NSaved=   5.
 NSaved= 5 IEnMin= 5 EnMin= -616.891880380427     IErMin= 5 ErrMin= 5.95D-04
 ErrMax= 5.95D-04 EMaxC= 1.00D-01 BMatC= 7.53D-05 BMatP= 2.01D-03
 IDIUse=3 WtCom= 9.94D-01 WtEn= 5.95D-03
 Coeff-Com: -0.140D-01 0.408D-01 0.184D+00 0.237D+00 0.552D+00
 Coeff-En:   0.000D+00 0.000D+00 0.000D+00 0.000D+00 0.100D+01
 Coeff:     -0.139D-01 0.406D-01 0.183D+00 0.236D+00 0.554D+00
 Gap=     0.247 Goal=   None    Shift=    0.000
 RMSDP=9.77D-05 MaxDP=3.44D-03 DE=-1.89D-03 OVMax= 6.35D-03

 Cycle   6  Pass 1  IDiag  1:
 E= -616.891945289968     Delta-E=       -0.000064909541 Rises=F Damp=F
 DIIS: error= 2.94D-04 at cycle   6 NSaved=   6.
 NSaved= 6 IEnMin= 6 EnMin= -616.891945289968     IErMin= 6 ErrMin= 2.94D-04
 ErrMax= 2.94D-04 EMaxC= 1.00D-01 BMatC= 1.54D-05 BMatP= 7.53D-05
 IDIUse=3 WtCom= 9.97D-01 WtEn= 2.94D-03
 Coeff-Com: -0.348D-02 0.664D-02 0.522D-01 0.754D-01 0.334D+00 0.535D+00
 Coeff-En:   0.000D+00 0.000D+00 0.000D+00 0.000D+00 0.167D+00 0.833D+00
 Coeff:     -0.347D-02 0.662D-02 0.520D-01 0.752D-01 0.333D+00 0.536D+00
 Gap=     0.247 Goal=   None    Shift=    0.000
 RMSDP=4.62D-05 MaxDP=1.55D-03 DE=-6.49D-05 OVMax= 2.18D-03

 Cycle   7  Pass 1  IDiag  1:
 E= -616.891960299406     Delta-E=       -0.000015009438 Rises=F Damp=F
 DIIS: error= 3.60D-05 at cycle   7 NSaved=   7.
 NSaved= 7 IEnMin= 7 EnMin= -616.891960299406     IErMin= 7 ErrMin= 3.60D-05
 ErrMax= 3.60D-05 EMaxC= 1.00D-01 BMatC= 4.68D-07 BMatP= 1.54D-05
 IDIUse=1 WtCom= 1.00D+00 WtEn= 0.00D+00
 Coeff-Com: -0.669D-03 0.310D-03 0.123D-01 0.184D-01 0.110D+00 0.240D+00
 Coeff-Com:  0.619D+00
 Coeff:     -0.669D-03 0.310D-03 0.123D-01 0.184D-01 0.110D+00 0.240D+00
 Coeff:      0.619D+00
 Gap=     0.247 Goal=   None    Shift=    0.000
 RMSDP=9.87D-06 MaxDP=3.38D-04 DE=-1.50D-05 OVMax= 1.84D-04

 Cycle   8  Pass 1  IDiag  1:
 E= -616.891960723493     Delta-E=       -0.000000424087 Rises=F Damp=F
 DIIS: error= 7.89D-06 at cycle   8 NSaved=   8.
 NSaved= 8 IEnMin= 8 EnMin= -616.891960723493     IErMin= 8 ErrMin= 7.89D-06
 ErrMax= 7.89D-06 EMaxC= 1.00D-01 BMatC= 1.90D-08 BMatP= 4.68D-07
 IDIUse=1 WtCom= 1.00D+00 WtEn= 0.00D+00
 Coeff-Com:  0.522D-04-0.364D-03 0.705D-03 0.129D-02 0.180D-01 0.567D-01
 Coeff-Com:  0.228D+00 0.696D+00
 Coeff:      0.522D-04-0.364D-03 0.705D-03 0.129D-02 0.180D-01 0.567D-01
 Coeff:      0.228D+00 0.696D+00
 Gap=     0.247 Goal=   None    Shift=    0.000
 RMSDP=1.90D-06 MaxDP=4.51D-05 DE=-4.24D-07 OVMax= 4.70D-05

 Cycle   9  Pass 1  IDiag  1:
 E= -616.891960741292     Delta-E=       -0.000000017799 Rises=F Damp=F
 DIIS: error= 2.12D-06 at cycle   9 NSaved=   9.
 NSaved= 9 IEnMin= 9 EnMin= -616.891960741292     IErMin= 9 ErrMin= 2.12D-06
 ErrMax= 2.12D-06 EMaxC= 1.00D-01 BMatC= 1.25D-09 BMatP= 1.90D-08
 IDIUse=1 WtCom= 1.00D+00 WtEn= 0.00D+00
 Coeff-Com:  0.438D-04-0.102D-03-0.500D-03-0.672D-03-0.237D-02-0.837D-03
 Coeff-Com:  0.182D-01 0.240D+00 0.746D+00
 Coeff:      0.438D-04-0.102D-03-0.500D-03-0.672D-03-0.237D-02-0.837D-03
 Coeff:      0.182D-01 0.240D+00 0.746D+00
 Gap=     0.247 Goal=   None    Shift=    0.000
 RMSDP=9.09D-07 MaxDP=3.56D-05 DE=-1.78D-08 OVMax= 8.75D-06

 Cycle  10  Pass 1  IDiag  1:
 E= -616.891960742526     Delta-E=       -0.000000001234 Rises=F Damp=F
 DIIS: error= 3.79D-07 at cycle  10 NSaved=  10.
 NSaved=10 IEnMin=10 EnMin= -616.891960742526     IErMin=10 ErrMin= 3.79D-07
 ErrMax= 3.79D-07 EMaxC= 1.00D-01 BMatC= 4.37D-11 BMatP= 1.25D-09
 IDIUse=1 WtCom= 1.00D+00 WtEn= 0.00D+00
 Coeff-Com:  0.116D-04-0.202D-04-0.187D-03-0.254D-03-0.129D-02-0.164D-02
 Coeff-Com:  0.509D-03 0.722D-01 0.274D+00 0.657D+00
 Coeff:      0.116D-04-0.202D-04-0.187D-03-0.254D-03-0.129D-02-0.164D-02
 Coeff:      0.509D-03 0.722D-01 0.274D+00 0.657D+00
 Gap=     0.247 Goal=   None    Shift=    0.000
 RMSDP=1.33D-07 MaxDP=5.53D-06 DE=-1.23D-09 OVMax= 1.96D-06

 Cycle  11  Pass 1  IDiag  1:
 E= -616.891960742565     Delta-E=       -0.000000000039 Rises=F Damp=F
 DIIS: error= 1.55D-07 at cycle  11 NSaved=  11.
 NSaved=11 IEnMin=11 EnMin= -616.891960742565     IErMin=11 ErrMin= 1.55D-07
 ErrMax= 1.55D-07 EMaxC= 1.00D-01 BMatC= 6.62D-12 BMatP= 4.37D-11
 IDIUse=1 WtCom= 1.00D+00 WtEn= 0.00D+00
 Coeff-Com:  0.178D-05-0.160D-05-0.494D-04-0.671D-04-0.396D-03-0.597D-03
 Coeff-Com: -0.118D-02 0.128D-01 0.617D-01 0.315D+00 0.613D+00
 Coeff:      0.178D-05-0.160D-05-0.494D-04-0.671D-04-0.396D-03-0.597D-03
 Coeff:     -0.118D-02 0.128D-01 0.617D-01 0.315D+00 0.613D+00
 Gap=     0.247 Goal=   None    Shift=    0.000
 RMSDP=3.47D-08 MaxDP=1.28D-06 DE=-3.93D-11 OVMax= 5.20D-07

 Cycle  12  Pass 1  IDiag  1:
 E= -616.891960742574     Delta-E=       -0.000000000009 Rises=F Damp=F
 DIIS: error= 1.92D-08 at cycle  12 NSaved=  12.
 NSaved=12 IEnMin=12 EnMin= -616.891960742574     IErMin=12 ErrMin= 1.92D-08
 ErrMax= 1.92D-08 EMaxC= 1.00D-01 BMatC= 1.19D-13 BMatP= 6.62D-12
 IDIUse=1 WtCom= 1.00D+00 WtEn= 0.00D+00
 Coeff-Com: -0.290D-06 0.800D-06-0.966D-06-0.292D-05-0.279D-04-0.203D-04
 Coeff-Com: -0.317D-03-0.145D-02-0.119D-02 0.364D-01 0.134D+00 0.832D+00
 Coeff:     -0.290D-06 0.800D-06-0.966D-06-0.292D-05-0.279D-04-0.203D-04
 Coeff:     -0.317D-03-0.145D-02-0.119D-02 0.364D-01 0.134D+00 0.832D+00
 Gap=     0.247 Goal=   None    Shift=    0.000
 RMSDP=1.10D-08 MaxDP=4.93D-07 DE=-8.98D-12 OVMax= 1.15D-07

 Cycle  13  Pass 1  IDiag  1:
 E= -616.891960742573     Delta-E=        0.000000000001 Rises=F Damp=F
 DIIS: error= 4.91D-09 at cycle  13 NSaved=  13.
 NSaved=13 IEnMin=12 EnMin= -616.891960742574     IErMin=13 ErrMin= 4.91D-09
 ErrMax= 4.91D-09 EMaxC= 1.00D-01 BMatC= 4.48D-15 BMatP= 1.19D-13
 IDIUse=1 WtCom= 1.00D+00 WtEn= 0.00D+00
 Coeff-Com: -0.132D-06 0.288D-06 0.119D-05 0.102D-05 0.403D-06 0.811D-05
 Coeff-Com: -0.797D-04-0.741D-03-0.192D-02 0.166D-02 0.195D-01 0.226D+00
 Coeff-Com:  0.755D+00
 Coeff:     -0.132D-06 0.288D-06 0.119D-05 0.102D-05 0.403D-06 0.811D-05
 Coeff:     -0.797D-04-0.741D-03-0.192D-02 0.166D-02 0.195D-01 0.226D+00
 Coeff:      0.755D+00
 Gap=     0.247 Goal=   None    Shift=    0.000
 RMSDP=2.75D-09 MaxDP=1.06D-07 DE= 1.25D-12 OVMax= 1.80D-08

 Cycle  14  Pass 1  IDiag  1:
 E= -616.891960742574     Delta-E=       -0.000000000001 Rises=F Damp=F
 DIIS: error= 1.02D-09 at cycle  14 NSaved=  14.
 NSaved=14 IEnMin=12 EnMin= -616.891960742574     IErMin=14 ErrMin= 1.02D-09
 ErrMax= 1.02D-09 EMaxC= 1.00D-01 BMatC= 2.40D-16 BMatP= 4.48D-15
 IDIUse=1 WtCom= 1.00D+00 WtEn= 0.00D+00
 Coeff-Com: -0.888D-08 0.182D-07 0.330D-06 0.394D-06 0.116D-05 0.299D-05
 Coeff-Com: -0.429D-05-0.962D-04-0.438D-03-0.178D-02-0.304D-02 0.118D-01
 Coeff-Com:  0.209D+00 0.785D+00
 Coeff:     -0.888D-08 0.182D-07 0.330D-06 0.394D-06 0.116D-05 0.299D-05
 Coeff:     -0.429D-05-0.962D-04-0.438D-03-0.178D-02-0.304D-02 0.118D-01
 Coeff:      0.209D+00 0.785D+00
 Gap=     0.247 Goal=   None    Shift=    0.000
 RMSDP=7.07D-10 MaxDP=2.73D-08 DE=-5.68D-13 OVMax= 4.27D-09

 Cycle  15  Pass 1  IDiag  1:
 E= -616.891960742574     Delta-E=        0.000000000000 Rises=F Damp=F
 DIIS: error= 1.87D-10 at cycle  15 NSaved=  15.
 NSaved=15 IEnMin=12 EnMin= -616.891960742574     IErMin=15 ErrMin= 1.87D-10
 ErrMax= 1.87D-10 EMaxC= 1.00D-01 BMatC= 3.95D-18 BMatP= 2.40D-16
 IDIUse=1 WtCom= 1.00D+00 WtEn= 0.00D+00
 Coeff-Com:  0.821D-09-0.174D-08 0.392D-07 0.713D-07 0.203D-06 0.399D-06
 Coeff-Com:  0.901D-06 0.288D-06-0.350D-04-0.334D-03-0.107D-02-0.332D-02
 Coeff-Com:  0.173D-01 0.134D+00 0.854D+00
 Coeff:      0.821D-09-0.174D-08 0.392D-07 0.713D-07 0.203D-06 0.399D-06
 Coeff:      0.901D-06 0.288D-06-0.350D-04-0.334D-03-0.107D-02-0.332D-02
 Coeff:      0.173D-01 0.134D+00 0.854D+00
 Gap=     0.247 Goal=   None    Shift=    0.000
 RMSDP=9.36D-11 MaxDP=3.57D-09 DE=-1.14D-13 OVMax= 8.25D-10

 Cycle  16  Pass 1  IDiag  1:
 E= -616.891960742573     Delta-E=        0.000000000001 Rises=F Damp=F
 DIIS: error= 4.62D-11 at cycle  16 NSaved=  16.
 NSaved=16 IEnMin=12 EnMin= -616.891960742574     IErMin=16 ErrMin= 4.62D-11
 ErrMax= 4.62D-11 EMaxC= 1.00D-01 BMatC= 1.94D-19 BMatP= 3.95D-18
 IDIUse=1 WtCom= 1.00D+00 WtEn= 0.00D+00
 Large coefficients: NSaved= 16 BigCof=    0.00 CofMax=   10.00 Det=-2.12D-18
 Inversion failed.  Reducing to 15 matrices.
 Coeff-Com: -0.196D-09 0.366D-08 0.116D-07 0.377D-07 0.778D-07 0.359D-06
 Coeff-Com:  0.170D-05 0.230D-05-0.202D-04-0.145D-03-0.916D-03-0.266D-02
 Coeff-Com:  0.214D-02 0.188D+00 0.814D+00
 Coeff:     -0.196D-09 0.366D-08 0.116D-07 0.377D-07 0.778D-07 0.359D-06
 Coeff:      0.170D-05 0.230D-05-0.202D-04-0.145D-03-0.916D-03-0.266D-02
 Coeff:      0.214D-02 0.188D+00 0.814D+00
 Gap=     0.247 Goal=   None    Shift=    0.000
 RMSDP=3.27D-11 MaxDP=1.61D-09 DE= 9.09D-13 OVMax= 1.77D-10

 Cycle  17  Pass 1  IDiag  1:
 E= -616.891960742573     Delta-E=        0.000000000000 Rises=F Damp=F
 DIIS: error= 8.96D-12 at cycle  17 NSaved=  16.
 NSaved=16 IEnMin=11 EnMin= -616.891960742574     IErMin=16 ErrMin= 8.96D-12
 ErrMax= 8.96D-12 EMaxC= 1.00D-01 BMatC= 8.81D-21 BMatP= 1.94D-19
 IDIUse=1 WtCom= 1.00D+00 WtEn= 0.00D+00
 Large coefficients: NSaved= 16 BigCof=    0.00 CofMax=   10.00 Det=-1.05D-19
 Inversion failed.  Reducing to 15 matrices.
 Coeff-Com: -0.127D-08-0.908D-09-0.237D-08-0.234D-09 0.466D-07 0.444D-06
 Coeff-Com:  0.247D-05 0.105D-04 0.913D-05-0.101D-03-0.149D-02-0.569D-02
 Coeff-Com:  0.144D-01 0.219D+00 0.774D+00
 Coeff:     -0.127D-08-0.908D-09-0.237D-08-0.234D-09 0.466D-07 0.444D-06
 Coeff:      0.247D-05 0.105D-04 0.913D-05-0.101D-03-0.149D-02-0.569D-02
 Coeff:      0.144D-01 0.219D+00 0.774D+00
 Gap=     0.247 Goal=   None    Shift=    0.000
 RMSDP=1.45D-11 MaxDP=5.56D-10 DE=-2.27D-13 OVMax= 3.10D-11

 Cycle  18  Pass 1  IDiag  1:
 E= -616.891960742573     Delta-E=        0.000000000000 Rises=F Damp=F
 DIIS: error= 2.89D-12 at cycle  18 NSaved=  16.
 NSaved=16 IEnMin=10 EnMin= -616.891960742574     IErMin=16 ErrMin= 2.89D-12
 ErrMax= 2.89D-12 EMaxC= 1.00D-01 BMatC= 4.72D-22 BMatP= 8.81D-21
 IDIUse=1 WtCom= 1.00D+00 WtEn= 0.00D+00
 Large coefficients: NSaved= 16 BigCof=    0.00 CofMax=   10.00 Det=-4.27D-21
 Inversion failed.  Reducing to 15 matrices.
 Coeff-Com:  0.139D-10 0.103D-08 0.141D-08 0.108D-07 0.321D-07 0.204D-06
 Coeff-Com:  0.655D-06 0.184D-06-0.142D-04-0.129D-03-0.750D-03-0.448D-03
 Coeff-Com:  0.238D-01 0.169D+00 0.809D+00
 Coeff:      0.139D-10 0.103D-08 0.141D-08 0.108D-07 0.321D-07 0.204D-06
 Coeff:      0.655D-06 0.184D-06-0.142D-04-0.129D-03-0.750D-03-0.448D-03
 Coeff:      0.238D-01 0.169D+00 0.809D+00
 Gap=     0.247 Goal=   None    Shift=    0.000
 RMSDP=2.09D-11 MaxDP=1.20D-09 DE= 3.41D-13 OVMax= 8.22D-12

 Cycle  19  Pass 1  IDiag  1:
 E= -616.891960742572     Delta-E=        0.000000000000 Rises=F Damp=F
 DIIS: error= 2.84D-12 at cycle  19 NSaved=  16.
 NSaved=16 IEnMin= 9 EnMin= -616.891960742574     IErMin=16 ErrMin= 2.84D-12
 ErrMax= 2.84D-12 EMaxC= 1.00D-01 BMatC= 3.13D-22 BMatP= 4.72D-22
 IDIUse=1 WtCom= 1.00D+00 WtEn= 0.00D+00
 Large coefficients: NSaved= 16 BigCof=    0.00 CofMax=   10.00 Det=-1.03D-21
 Inversion failed.  Reducing to 15 matrices.
 Coeff-Com:  0.396D-09-0.318D-10 0.207D-08 0.702D-08 0.839D-07 0.464D-06
 Coeff-Com:  0.898D-06-0.309D-05-0.433D-04-0.321D-03-0.973D-03 0.453D-02
 Coeff-Com:  0.574D-01 0.449D+00 0.491D+00
 Coeff:      0.396D-09-0.318D-10 0.207D-08 0.702D-08 0.839D-07 0.464D-06
 Coeff:      0.898D-06-0.309D-05-0.433D-04-0.321D-03-0.973D-03 0.453D-02
 Coeff:      0.574D-01 0.449D+00 0.491D+00
 Gap=     0.247 Goal=   None    Shift=    0.000
 RMSDP=1.36D-11 MaxDP=9.18D-10 DE= 3.41D-13 OVMax= 3.86D-12

 Cycle  20  Pass 1  IDiag  1:
 E= -616.891960742572     Delta-E=        0.000000000000 Rises=F Damp=F
 DIIS: error= 1.28D-12 at cycle  20 NSaved=  16.
 NSaved=16 IEnMin= 8 EnMin= -616.891960742574     IErMin=16 ErrMin= 1.28D-12
 ErrMax= 1.28D-12 EMaxC= 1.00D-01 BMatC= 9.67D-23 BMatP= 3.13D-22
 IDIUse=1 WtCom= 1.00D+00 WtEn= 0.00D+00
 Large coefficients: NSaved= 16 BigCof=    0.00 CofMax=   10.00 Det=-2.35D-22
 Inversion failed.  Reducing to 15 matrices.
 Coeff-Com: -0.538D-09-0.104D-08-0.189D-08 0.373D-07 0.236D-06 0.543D-06
 Coeff-Com: -0.250D-06-0.504D-05-0.122D-03-0.593D-03 0.119D-02 0.298D-01
 Coeff-Com:  0.298D+00 0.177D+00 0.495D+00
 Coeff:     -0.538D-09-0.104D-08-0.189D-08 0.373D-07 0.236D-06 0.543D-06
 Coeff:     -0.250D-06-0.504D-05-0.122D-03-0.593D-03 0.119D-02 0.298D-01
 Coeff:      0.298D+00 0.177D+00 0.495D+00
 Gap=     0.247 Goal=   None    Shift=    0.000
 RMSDP=4.78D-12 MaxDP=3.37D-10 DE= 4.55D-13 OVMax= 1.56D-12

 SCF Done:  E(RB3LYP) =  -616.891960743     A.U. after   20 cycles
             Convg  =    0.4780D-11             -V/T =  2.0031
 KE= 6.149848531324D+02 PE=-1.879842194831D+03 EE= 4.363977094104D+02
 Leave Link  502 at Wed Jul 10 16:55:03 2013, MaxMem=  131072000 cpu:     283.4
 (Enter /cerebro/home/software/apps/g09/l801.exe)
 Range of M.O.s used for correlation:     1   167
 NBasis=   167 NAE=    24 NBE=    24 NFC=     0 NFV=     0
 NROrb=    167 NOA=    24 NOB=    24 NVA=   143 NVB=   143

 **** Warning!!: The largest alpha MO coefficient is  0.73675863D+02

 Leave Link  801 at Wed Jul 10 16:55:03 2013, MaxMem=  131072000 cpu:       0.1
 (Enter /cerebro/home/software/apps/g09/l1002.exe)
 Minotr:  Closed shell wavefunction.
          Direct CPHF calculation.
          Differentiating once with respect to magnetic field using GIAOs.
          Electric field/nuclear overlap derivatives assumed to be zero.
          Requested convergence is 1.0D-11 RMS, and 1.0D-10 maximum.
          NewPWx=F KeepS1=T KeepF1=T KeepIn=T MapXYZ=F SortEE=F KeepMc=T.
          MDV=     131071900 using IRadAn=       4.
 Generate precomputed XC quadrature information.
          Solving linear equations separately, MaxMat=       0.
          Doing perturbations at frequencies    0.071980    0.077357    0.104503    0.128347
 FoFCou: FMM=F IPFlag=           0 FMFlag=           0 FMFlg1=           0
         NFxFlg=           0 DoJE=F BraDBF=F KetDBF=T FulRan=T
         Omega=  0.000000  0.000000  1.000000  0.000000  0.000000 ICntrl=    6100 IOpCl=  0
         NMat0=    1 NMatS0=    1 NMatT0=    0 NMatD0=    1 NMtDS0=    0 NMtDT0=    0
         I1Cent=           7 NGrid=          12.
 Symmetry not used in FoFCou.
 Integrals replicated using symmetry in FoFDir.
 MinBra= 0 MaxBra= 2 Meth= 1.
 IRaf=       0 NMat=  24 IRICut=      30 DoRegI=T DoRafI=T ISym2E= 2 JSym2E=2.
 CalDSu exits because no D1Ps are significant.
          There are    12 degrees of freedom in the 1st order CPHF.  IDoFFX=0.
 LinEq1:  Iter=  0 NonCon=    12 RMS=5.73D-02 Max=1.53D+00
 AX will form    12 AO Fock derivatives at one time.
 LinEq1:  Iter=  1 NonCon=    12 RMS=1.62D-02 Max=7.79D-01
 LinEq1:  Iter=  2 NonCon=    12 RMS=1.26D-02 Max=6.89D-01
 LinEq1:  Iter=  3 NonCon=    12 RMS=6.54D-03 Max=1.81D-01
 LinEq1:  Iter=  4 NonCon=    12 RMS=4.31D-03 Max=7.35D-02
 LinEq1:  Iter=  5 NonCon=    12 RMS=1.72D-03 Max=5.38D-02
 LinEq1:  Iter=  6 NonCon=    12 RMS=9.27D-04 Max=1.74D-02
 LinEq1:  Iter=  7 NonCon=    12 RMS=3.25D-04 Max=5.82D-03
 LinEq1:  Iter=  8 NonCon=    12 RMS=1.38D-04 Max=2.79D-03
 LinEq1:  Iter=  9 NonCon=    12 RMS=5.73D-05 Max=8.44D-04
 LinEq1:  Iter= 10 NonCon=    12 RMS=2.13D-05 Max=3.22D-04
 LinEq1:  Iter= 11 NonCon=    12 RMS=7.31D-06 Max=1.59D-04
 LinEq1:  Iter= 12 NonCon=    12 RMS=3.17D-06 Max=5.17D-05
 LinEq1:  Iter= 13 NonCon=    12 RMS=1.34D-06 Max=2.38D-05
 LinEq1:  Iter= 14 NonCon=    12 RMS=4.21D-07 Max=6.59D-06
 LinEq1:  Iter= 15 NonCon=    12 RMS=1.09D-07 Max=1.74D-06
 LinEq1:  Iter= 16 NonCon=    12 RMS=3.48D-08 Max=6.46D-07
 LinEq1:  Iter= 17 NonCon=    12 RMS=8.64D-09 Max=1.97D-07
 LinEq1:  Iter= 18 NonCon=    12 RMS=2.09D-09 Max=5.17D-08
 LinEq1:  Iter= 19 NonCon=    12 RMS=5.83D-10 Max=1.44D-08
 LinEq1:  Iter= 20 NonCon=    12 RMS=1.65D-10 Max=3.38D-09
 LinEq1:  Iter= 21 NonCon=     8 RMS=5.97D-11 Max=1.66D-09
 LinEq1:  Iter= 22 NonCon=     3 RMS=1.37D-11 Max=2.63D-10
 LinEq1:  Iter= 23 NonCon=     0 RMS=4.93D-12 Max=5.89D-11
 Linear equations converged to 1.000D-11 1.000D-10 after    23 iterations.
 FullF1:  Do perturbations    1 to    12.
 Dipole-magnetic dipole polarizability for W=    0.071980:
                 1             2             3 
      1   0.566622D+01 -0.530013D+00 -0.680920D+01
      2  -0.836606D+01 -0.512960D+01 -0.193721D+02
      3   0.256358D+02  0.986051D+01  0.728935D+00
 w=    0.071980 a.u., Optical Rotation Beta=     -0.4219 au.
 Molar Mass =     90.5523 grams/mole, [Alpha] ( 6330.0 A) =     -156.06 deg.
 Dipole-magnetic dipole polarizability for W=    0.077357:
                 1             2             3 
      1   0.574461D+01 -0.512293D+00 -0.679395D+01
      2  -0.850607D+01 -0.517882D+01 -0.194452D+02
      3   0.258572D+02  0.995216D+01  0.747074D+00
 w=    0.077357 a.u., Optical Rotation Beta=     -0.4376 au.
 Molar Mass =     90.5523 grams/mole, [Alpha] ( 5890.0 A) =     -186.99 deg.
 Dipole-magnetic dipole polarizability for W=    0.104503:
                 1             2             3 
      1   0.628625D+01 -0.383019D+00 -0.668236D+01
      2  -0.945846D+01 -0.550225D+01 -0.199175D+02
      3   0.273906D+02  0.105864D+02  0.877510D+00
 w=    0.104503 a.u., Optical Rotation Beta=     -0.5538 au.
 Molar Mass =     90.5523 grams/mole, [Alpha] ( 4360.0 A) =     -431.88 deg.
 Dipole-magnetic dipole polarizability for W=    0.128347:
                 1             2             3 
      1   0.705600D+01 -0.182423D+00 -0.651189D+01
      2  -0.107592D+02 -0.591436D+01 -0.205030D+02
      3   0.295846D+02  0.114896D+02  0.107635D+01
 w=    0.128347 a.u., Optical Rotation Beta=     -0.7393 au.
 Molar Mass =     90.5523 grams/mole, [Alpha] ( 3550.0 A) =     -869.62 deg.
 End of Minotr Frequency-dependent properties on file   721 Mask=       2 NFrqRd=     4 NDeriv=     1 LenFil=      42:
 Frequencies=    0.071980    0.077357    0.104503    0.128347
 Property number 2 -- FD Optical Rotation Tensor frequency  1    0.071980:
                 1             2             3 
      1   0.566622D+01 -0.530013D+00 -0.680920D+01
      2  -0.836606D+01 -0.512960D+01 -0.193721D+02
      3   0.256358D+02  0.986051D+01  0.728935D+00
 Property number 2 -- FD Optical Rotation Tensor frequency  2    0.077357:
                 1             2             3 
      1   0.574461D+01 -0.512293D+00 -0.679395D+01
      2  -0.850607D+01 -0.517882D+01 -0.194452D+02
      3   0.258572D+02  0.995216D+01  0.747074D+00
 Property number 2 -- FD Optical Rotation Tensor frequency  3    0.104503:
                 1             2             3 
      1   0.628625D+01 -0.383019D+00 -0.668236D+01
      2  -0.945846D+01 -0.550225D+01 -0.199175D+02
      3   0.273906D+02  0.105864D+02  0.877510D+00
 Property number 2 -- FD Optical Rotation Tensor frequency  4    0.128347:
                 1             2             3 
      1   0.705600D+01 -0.182423D+00 -0.651189D+01
      2  -0.107592D+02 -0.591436D+01 -0.205030D+02
      3   0.295846D+02  0.114896D+02  0.107635D+01
 End of Minotr Frequency-dependent properties file   722 does not exist.
 Leave Link 1002 at Wed Jul 10 17:28:48 2013, MaxMem=  131072000 cpu:    2016.2
 (Enter /cerebro/home/software/apps/g09/l601.exe)
 Copying SCF densities to generalized density rwf, IOpCl= 0 IROHF=0.

 **********************************************************************

            Population analysis using the SCF density.

 **********************************************************************

 Orbital symmetries:
       Occupied  (A) (A) (A) (A) (A) (A) (A) (A) (A) (A) (A) (A)
                 (A) (A) (A) (A) (A) (A) (A) (A) (A) (A) (A) (A)
       Virtual   (A) (A) (A) (A) (A) (A) (A) (A) (A) (A) (A) (A)
                 (A) (A) (A) (A) (A) (A) (A) (A) (A) (A) (A) (A)
                 (A) (A) (A) (A) (A) (A) (A) (A) (A) (A) (A) (A)
                 (A) (A) (A) (A) (A) (A) (A) (A) (A) (A) (A) (A)
                 (A) (A) (A) (A) (A) (A) (A) (A) (A) (A) (A) (A)
                 (A) (A) (A) (A) (A) (A) (A) (A) (A) (A) (A) (A)
                 (A) (A) (A) (A) (A) (A) (A) (A) (A) (A) (A) (A)
                 (A) (A) (A) (A) (A) (A) (A) (A) (A) (A) (A) (A)
                 (A) (A) (A) (A) (A) (A) (A) (A) (A) (A) (A) (A)
                 (A) (A) (A) (A) (A) (A) (A) (A) (A) (A) (A) (A)
                 (A) (A) (A) (A) (A) (A) (A) (A) (A) (A) (A) (A)
                 (A) (A) (A) (A) (A) (A) (A) (A) (A) (A) (A)
 The electronic state is 1-A.
 Alpha  occ. eigenvalues -- -101.53420 -10.24998 -10.19536 -10.18321 -10.18197
 Alpha  occ. eigenvalues --   -9.44862  -7.21297  -7.20353  -7.20337  -0.86719
 Alpha  occ. eigenvalues --   -0.78729  -0.74261  -0.63951  -0.57568  -0.48613
 Alpha  occ. eigenvalues --   -0.47550  -0.44524  -0.41621  -0.40252  -0.37622
 Alpha  occ. eigenvalues --   -0.36467  -0.30600  -0.29835  -0.28061
 Alpha virt. eigenvalues --   -0.03338  -0.00769   0.00627   0.00640   0.02218
 Alpha virt. eigenvalues --    0.02838   0.03831   0.04133   0.06346   0.06473
 Alpha virt. eigenvalues --    0.07196   0.08347   0.08756   0.09862   0.11060
 Alpha virt. eigenvalues --    0.11534   0.11851   0.12122   0.12814   0.13071
 Alpha virt. eigenvalues --    0.13529   0.14173   0.14991   0.15666   0.16057
 Alpha virt. eigenvalues --    0.16390   0.17373   0.18330   0.19202   0.21172
 Alpha virt. eigenvalues --    0.21815   0.22679   0.24607   0.26120   0.27044
 Alpha virt. eigenvalues --    0.29138   0.34293   0.35651   0.39038   0.42534
 Alpha virt. eigenvalues --    0.43037   0.44818   0.45893   0.47812   0.48797
 Alpha virt. eigenvalues --    0.49562   0.52228   0.53002   0.56627   0.58571
 Alpha virt. eigenvalues --    0.59915   0.62276   0.63036   0.64527   0.65621
 Alpha virt. eigenvalues --    0.66022   0.68977   0.70175   0.73855   0.74110
 Alpha virt. eigenvalues --    0.78672   0.81642   0.83142   0.86288   0.89127
 Alpha virt. eigenvalues --    0.90222   0.94343   0.96015   1.00621   1.03130
 Alpha virt. eigenvalues --    1.06470   1.08307   1.12504   1.17527   1.19793
 Alpha virt. eigenvalues --    1.29190   1.39289   1.43015   1.44982   1.46815
 Alpha virt. eigenvalues --    1.50219   1.54183   1.56799   1.58313   1.58552
 Alpha virt. eigenvalues --    1.62893   1.66407   1.68822   1.70014   1.72046
 Alpha virt. eigenvalues --    1.76890   1.78611   1.86407   1.87750   1.93263
 Alpha virt. eigenvalues --    1.98815   2.01449   2.06703   2.12003   2.17533
 Alpha virt. eigenvalues --    2.19052   2.19210   2.24477   2.29547   2.30572
 Alpha virt. eigenvalues --    2.35570   2.36868   2.42049   2.46039   2.49051
 Alpha virt. eigenvalues --    2.53070   2.55353   2.56869   2.58537   2.63382
 Alpha virt. eigenvalues --    2.65874   2.72956   2.73277   2.75126   2.77176
 Alpha virt. eigenvalues --    2.85604   2.86808   2.92922   3.08062   3.08615
 Alpha virt. eigenvalues --    3.18045   3.39655   3.50443   3.72334   3.74622
 Alpha virt. eigenvalues --    3.83725   3.93295   4.11380   4.27778   9.75623
 Alpha virt. eigenvalues --   23.70781  23.78061  23.94814  24.25504  25.93018
 Alpha virt. eigenvalues --   25.97402  26.44558 215.74611
          Condensed to atoms (all electrons):
              1          2          3          4          5          6
     1  C    5.410717   0.121680   0.016217   0.104650  -0.005785   0.383299
     2  C    0.121680   5.430819   0.013037  -0.115938  -0.019636  -0.057898
     3  C    0.016217   0.013037   5.318943   0.426411  -0.042897   0.024180
     4  C    0.104650  -0.115938   0.426411   5.393100   0.386474  -0.010445
     5  H   -0.005785  -0.019636  -0.042897   0.386474   0.565739   0.000810
     6  H    0.383299  -0.057898   0.024180  -0.010445   0.000810   0.553424
     7  H    0.003364   0.018365  -0.013070   0.390578  -0.039355   0.000213
     8  H   -0.019299  -0.009869   0.326564  -0.031947   0.015953  -0.001581
     9  H   -0.047316   0.473611  -0.139582   0.013461   0.011567  -0.004035
    10  H    0.387855  -0.006834  -0.045613  -0.003406   0.002487  -0.019088
    11  H    0.369458  -0.051089   0.018893   0.005004  -0.001044  -0.028255
    12  Cl  -0.050266   0.024815   0.000259   0.067368  -0.000028   0.011848
              7          8          9         10         11         12
     1  C    0.003364  -0.019299  -0.047316   0.387855   0.369458  -0.050266
     2  C    0.018365  -0.009869   0.473611  -0.006834  -0.051089   0.024815
     3  C   -0.013070   0.326564  -0.139582  -0.045613   0.018893   0.000259
     4  C    0.390578  -0.031947   0.013461  -0.003406   0.005004   0.067368
     5  H   -0.039355   0.015953   0.011567   0.002487  -0.001044  -0.000028
     6  H    0.000213  -0.001581  -0.004035  -0.019088  -0.028255   0.011848
     7  H    0.535044  -0.020551  -0.002853  -0.000975   0.000253  -0.004203
     8  H   -0.020551   0.549419   0.005475   0.004154  -0.002605   0.018974
     9  H   -0.002853   0.005475   0.517250   0.007871  -0.010747  -0.042556
    10  H   -0.000975   0.004154   0.007871   0.537794  -0.034254   0.010386
    11  H    0.000253  -0.002605  -0.010747  -0.034254   0.580486   0.018565
    12  Cl  -0.004203   0.018974  -0.042556   0.010386   0.018565  17.005107
 Mulliken atomic charges:
              1
     1  C   -0.674575
     2  C    0.178938
     3  C    0.096656
     4  C   -0.625310
     5  H    0.125714
     6  H    0.147530
     7  H    0.133190
     8  H    0.165313
     9  H    0.217854
    10  H    0.159625
    11  H    0.135334
    12  Cl  -0.060269
 Sum of Mulliken atomic charges =   0.00000
 Mulliken charges with hydrogens summed into heavy atoms:
              1
     1  C   -0.232086
     2  C    0.396792
     3  C    0.261969
     4  C   -0.366405
    12  Cl  -0.060269
 Sum of Mulliken charges with hydrogens summed into heavy atoms =   0.00000
 Electronic spatial extent (au):  <R**2>=            629.1095
 Charge=              0.0000 electrons
 Dipole moment (field-independent basis, Debye):
    X=             -1.7228    Y=              1.5630    Z=             -0.2875  Tot=              2.3438
 Quadrupole moment (field-independent basis, Debye-Ang):
   XX=            -39.3830   YY=            -40.0873   ZZ=            -37.1702
   XY=              2.3215   XZ=              0.0630   YZ=             -0.1009
 Traceless Quadrupole moment (field-independent basis, Debye-Ang):
   XX=             -0.5028   YY=             -1.2072   ZZ=              1.7100
   XY=              2.3215   XZ=              0.0630   YZ=             -0.1009
 Octapole moment (field-independent basis, Debye-Ang**2):
  XXX=             -2.0889  YYY=              1.3851  ZZZ=             -0.2893  XYY=              4.2954
  XXY=             -4.7850  XXZ=              0.2792  XZZ=             -0.9644  YZZ=             -0.3821
  YYZ=              0.0193  XYZ=             -0.3163
 Hexadecapole moment (field-independent basis, Debye-Ang**3):
 XXXX=           -488.6681 YYYY=           -278.1095 ZZZZ=            -81.2102 XXXY=              9.4867
 XXXZ=             -2.4488 YYYX=             -8.7930 YYYZ=             -1.1675 ZZZX=              1.1568
 ZZZY=              1.5650 XXYY=           -129.6994 XXZZ=            -96.1307 YYZZ=            -61.6033
 XXYZ=             -3.1128 YYXZ=              0.8785 ZZXY=              1.5436
 N-N= 2.115676715457D+02 E-N=-1.879842194831D+03  KE= 6.149848531324D+02
 No NMR shielding tensors so no spin-rotation constants.
 Leave Link  601 at Wed Jul 10 17:28:48 2013, MaxMem=  131072000 cpu:       0.2
 (Enter /cerebro/home/software/apps/g09/l9999.exe)
 AllDun Frequency-dependent properties on file 20721 Mask=       2 NFrqRd=     4 NDeriv=     1 LenFil=      42:
 Frequencies=    0.071980    0.077357    0.104503    0.128347
 Property number 2 -- FD Optical Rotation Tensor frequency  1    0.071980:
                 1             2             3 
      1   0.569273D+01 -0.522631D+00 -0.679169D+01
      2  -0.832203D+01 -0.515758D+01 -0.193605D+02
      3   0.256369D+02  0.990008D+01  0.730417D+00
 Property number 2 -- FD Optical Rotation Tensor frequency  2    0.077357:
                 1             2             3 
      1   0.577146D+01 -0.504660D+00 -0.677645D+01
      2  -0.846154D+01 -0.520690D+01 -0.194334D+02
      3   0.258584D+02  0.999209D+01  0.748307D+00
 Property number 2 -- FD Optical Rotation Tensor frequency  3    0.104503:
                 1             2             3 
      1   0.631546D+01 -0.373663D+00 -0.666498D+01
      2  -0.941044D+01 -0.553089D+01 -0.199039D+02
      3   0.273925D+02  0.106287D+02  0.876949D+00
 Property number 2 -- FD Optical Rotation Tensor frequency  4    0.128347:
                 1             2             3 
      1   0.708852D+01 -0.170645D+00 -0.649479D+01
      2  -0.107061D+02 -0.594358D+01 -0.204868D+02
      3   0.295876D+02  0.115354D+02  0.107304D+01
 1\1\GINC-COMPUTE-0-2\SP\RB3LYP\6-311++G(d,p)\C4H7Cl1\CRAWDAD\10-Jul-20
 13\0\\#P B3LYP/6-311++G** scf(conver=11) int=ultrafine polar=optrot cp
 hf(rdfreq,conver=11)\\(R)-3-chloro-1-butene tau=120\\0,1\C,0,0.4657289
 4,1.7533036,0.04538249\C,0,0.00612022,0.35033867,-0.32214527\C,0,-1.20
 572708,-0.09678826,0.42596028\C,0,-2.33294547,-0.49808409,-0.15615434\
 H,0,-2.42783812,-0.55132657,-1.23040603\H,0,1.41690268,2.03413629,-0.5
 3456058\H,0,-3.19428607,-0.78761056,0.42426846\H,0,-1.12764893,-0.0607
 4035,1.52146967\H,0,-0.1589386,0.25521323,-1.42308243\H,0,0.66672768,1
 .82869444,1.06830137\H,0,-0.31818419,2.46804804,-0.21158829\Cl,0,1.386
 06188,-0.83737232,0.02287239\\Version=EM64L-G09RevA.02\State=1-A\HF=-6
 16.8919607\RMSD=4.780e-12\Dipole=-0.678558,0.6139731,-0.1136796\Quadru
 pole=-0.3774717,-0.8940441,1.2715158,1.7265688,0.045027,-0.0723288\PG=
 C01 [X(C4H7Cl1)]\\@


 MICRO CREDO - NEVER TRUST A COMPUTER BIGGER
               BIGGER THAN YOU CAN LIFT.
 Job cpu time:  0 days  0 hours 38 minutes 28.9 seconds.
 File lengths (MBytes):  RWF=    119 Int=      0 D2E=      0 Chk=      2 Scr=      1
 Normal termination of Gaussian 09 at Wed Jul 10 17:28:49 2013.
