(R)-3-chloro-1-butene tau=120                                           
SP        RB3LYP                                                      6-311++G(d,p)       
Number of atoms                            I               12
Info1-9                                    I   N=           9
          26          26           0           0           0         110
           1          18        -502
Full Title                                 C   N=           3
(R)-3-chloro-1-butene tau=120       
Route                                      C   N=           7
#P B3LYP/6-311++G** scf(conver=11) int=ultrafine polar=optro
t cphf(rdfreq,conver=11)
Charge                                     I                0
Multiplicity                               I                1
Number of electrons                        I               48
Number of alpha electrons                  I               24
Number of beta electrons                   I               24
Number of basis functions                  I              167
Number of independent functions            I              167
Number of point charges in /Mol/           I                0
Number of translation vectors              I                0
Atomic numbers                             I   N=          12
           6           6           6           6           1           1
           1           1           1           1           1          17
Nuclear charges                            R   N=          12
  6.00000000E+00  6.00000000E+00  6.00000000E+00  6.00000000E+00  1.00000000E+00
  1.00000000E+00  1.00000000E+00  1.00000000E+00  1.00000000E+00  1.00000000E+00
  1.00000000E+00  1.70000000E+01
Current cartesian coordinates              R   N=          36
  8.82857080E-01  3.31198915E+00  9.44919065E-02  1.20843534E-02  6.63062325E-01
 -6.05955229E-01 -2.28015639E+00 -1.82146742E-01  8.04063124E-01 -4.41011841E+00
 -9.36046987E-01 -2.99353157E-01 -4.58772301E+00 -1.03253050E+00 -2.32974602E+00
  2.68187159E+00  3.84286516E+00 -9.98797550E-01 -6.03939162E+00 -1.48353722E+00
  7.94963245E-01 -2.13439777E+00 -1.18199692E-01  2.87453560E+00 -2.98155097E-01
  4.87672892E-01 -2.68704867E+00  1.26110534E+00  3.45029807E+00  2.02814107E+00
 -5.96627279E-01  4.66520108E+00 -3.89819974E-01  2.61678342E+00 -1.58546566E+00
  4.40172020E-02
Number of symbols in /Mol/                 I                0
Force Field                                I                0
Atom Types                                 C   N=          12
                                                            
                                                            
                        
Int Atom Types                             I   N=          12
           0           0           0           0           0           0
           0           0           0           0           0           0
MM charges                                 R   N=          12
  0.00000000E+00  0.00000000E+00  0.00000000E+00  0.00000000E+00  0.00000000E+00
  0.00000000E+00  0.00000000E+00  0.00000000E+00  0.00000000E+00  0.00000000E+00
  0.00000000E+00  0.00000000E+00
Integer atomic weights                     I   N=          12
          12          12          12          12           1           1
           1           1           1           1           1          35
Real atomic weights                        R   N=          12
  1.20000000E+01  1.20000000E+01  1.20000000E+01  1.20000000E+01  1.00782504E+00
  1.00782504E+00  1.00782504E+00  1.00782504E+00  1.00782504E+00  1.00782504E+00
  1.00782504E+00  3.49688527E+01
Atom fragment info                         I   N=          12
           0           0           0           0           0           0
           0           0           0           0           0           0
Atom residue num                           I   N=          12
           0           0           0           0           0           0
           0           0           0           0           0           0
Nuclear spins                              I   N=          12
           0           0           0           0           1           1
           1           1           1           1           1           3
Nuclear ZEff                               R   N=          12
 -3.60000000E+00 -3.60000000E+00 -3.60000000E+00 -3.60000000E+00 -1.00000000E+00
 -1.00000000E+00 -1.00000000E+00 -1.00000000E+00 -1.00000000E+00 -1.00000000E+00
 -1.00000000E+00 -1.42400000E+01
Nuclear ZNuc                               R   N=          12
  6.00000000E+00  6.00000000E+00  6.00000000E+00  6.00000000E+00  1.00000000E+00
  1.00000000E+00  1.00000000E+00  1.00000000E+00  1.00000000E+00  1.00000000E+00
  1.00000000E+00  1.70000000E+01
Nuclear QMom                               R   N=          12
  0.00000000E+00  0.00000000E+00  0.00000000E+00  0.00000000E+00  0.00000000E+00
  0.00000000E+00  0.00000000E+00  0.00000000E+00  0.00000000E+00  0.00000000E+00
  0.00000000E+00 -8.16500000E+00
Nuclear GFac                               R   N=          12
  0.00000000E+00  0.00000000E+00  0.00000000E+00  0.00000000E+00  2.79284600E+00
  2.79284600E+00  2.79284600E+00  2.79284600E+00  2.79284600E+00  2.79284600E+00
  2.79284600E+00  8.21874000E-01
MicOpt                                     I   N=          12
          -1          -1          -1          -1          -1          -1
          -1          -1          -1          -1          -1          -1
Number of residues                         I                0
Number of secondary structures             I                0
SymInf integers                            I   N=          26
           1           1           1           1           1           0
           0           0           0           0           0           0
           0           0           0           0           0           0
           0           0           0           0           0           0
           0           0
RotTr to input orientation                 R   N=          12
  9.99999013E-01  1.08001521E-03 -8.99004438E-04 -1.08175666E-03  9.99997535E-01
 -1.93885863E-03  8.96908225E-04  1.93982922E-03  9.99997716E-01  7.41956479E-04
  1.45847488E-04 -1.51604224E-03
Number of contracted shells                I               72
Number of primitive shells                 I              126
Pure/Cartesian d shells                    I                0
Pure/Cartesian f shells                    I                0
Highest angular momentum                   I                2
Largest degree of contraction              I                6
Shell types                                I   N=          72
           0          -1          -1          -1          -1          -2
           0          -1          -1          -1          -1          -2
           0          -1          -1          -1          -1          -2
           0          -1          -1          -1          -1          -2
           0           0           0           0           1           0
           0           0           0           1           0           0
           0           0           1           0           0           0
           0           1           0           0           0           0
           1           0           0           0           0           1
           0           0           0           0           1           0
           0           0           0           0           0          -1
           1           1           1           1           1          -2
Number of primitives per shell             I   N=          72
           6           3           1           1           1           1
           6           3           1           1           1           1
           6           3           1           1           1           1
           6           3           1           1           1           1
           3           1           1           1           1           3
           1           1           1           1           3           1
           1           1           1           3           1           1
           1           1           3           1           1           1
           1           3           1           1           1           1
           3           1           1           1           1           6
           3           1           1           1           1           1
           5           2           1           1           1           1
Shell to atom map                          I   N=          72
           1           1           1           1           1           1
           2           2           2           2           2           2
           3           3           3           3           3           3
           4           4           4           4           4           4
           5           5           5           5           5           6
           6           6           6           6           7           7
           7           7           7           8           8           8
           8           8           9           9           9           9
           9          10          10          10          10          10
          11          11          11          11          11          12
          12          12          12          12          12          12
          12          12          12          12          12          12
Primitive exponents                        R   N=         126
  4.56324000E+03  6.82024000E+02  1.54973000E+02  4.44553000E+01  1.30290000E+01
  1.82773000E+00  2.09642000E+01  4.80331000E+00  1.45933000E+00  4.83456000E-01
  1.45585000E-01  4.38000000E-02  6.26000000E-01  4.56324000E+03  6.82024000E+02
  1.54973000E+02  4.44553000E+01  1.30290000E+01  1.82773000E+00  2.09642000E+01
  4.80331000E+00  1.45933000E+00  4.83456000E-01  1.45585000E-01  4.38000000E-02
  6.26000000E-01  4.56324000E+03  6.82024000E+02  1.54973000E+02  4.44553000E+01
  1.30290000E+01  1.82773000E+00  2.09642000E+01  4.80331000E+00  1.45933000E+00
  4.83456000E-01  1.45585000E-01  4.38000000E-02  6.26000000E-01  4.56324000E+03
  6.82024000E+02  1.54973000E+02  4.44553000E+01  1.30290000E+01  1.82773000E+00
  2.09642000E+01  4.80331000E+00  1.45933000E+00  4.83456000E-01  1.45585000E-01
  4.38000000E-02  6.26000000E-01  3.38650000E+01  5.09479000E+00  1.15879000E+00
  3.25840000E-01  1.02741000E-01  3.60000000E-02  7.50000000E-01  3.38650000E+01
  5.09479000E+00  1.15879000E+00  3.25840000E-01  1.02741000E-01  3.60000000E-02
  7.50000000E-01  3.38650000E+01  5.09479000E+00  1.15879000E+00  3.25840000E-01
  1.02741000E-01  3.60000000E-02  7.50000000E-01  3.38650000E+01  5.09479000E+00
  1.15879000E+00  3.25840000E-01  1.02741000E-01  3.60000000E-02  7.50000000E-01
  3.38650000E+01  5.09479000E+00  1.15879000E+00  3.25840000E-01  1.02741000E-01
  3.60000000E-02  7.50000000E-01  3.38650000E+01  5.09479000E+00  1.15879000E+00
  3.25840000E-01  1.02741000E-01  3.60000000E-02  7.50000000E-01  3.38650000E+01
  5.09479000E+00  1.15879000E+00  3.25840000E-01  1.02741000E-01  3.60000000E-02
  7.50000000E-01  1.05819000E+05  1.58720000E+04  3.61965000E+03  1.03080000E+03
  3.39908000E+02  1.24538000E+02  1.24538000E+02  4.95135000E+01  2.08056000E+01
  6.58346000E+00  2.56468000E+00  5.59763000E-01  1.83273000E-01  4.83000000E-02
  5.89776000E+02  1.39849000E+02  4.51413000E+01  1.68733000E+01  2.77152000E+00
  6.74110000E+00  2.77152000E+00  1.02387000E+00  3.81368000E-01  1.09437000E-01
  7.50000000E-01
Contraction coefficients                   R   N=         126
  1.96665025E-03  1.52306019E-02  7.61269097E-02  2.60801033E-01  6.16462078E-01
  2.21006028E-01  1.14660081E-01  9.19999648E-01 -3.03068213E-03  1.00000000E+00
  1.00000000E+00  1.00000000E+00  1.00000000E+00  1.96665025E-03  1.52306019E-02
  7.61269097E-02  2.60801033E-01  6.16462078E-01  2.21006028E-01  1.14660081E-01
  9.19999648E-01 -3.03068213E-03  1.00000000E+00  1.00000000E+00  1.00000000E+00
  1.00000000E+00  1.96665025E-03  1.52306019E-02  7.61269097E-02  2.60801033E-01
  6.16462078E-01  2.21006028E-01  1.14660081E-01  9.19999648E-01 -3.03068213E-03
  1.00000000E+00  1.00000000E+00  1.00000000E+00  1.00000000E+00  1.96665025E-03
  1.52306019E-02  7.61269097E-02  2.60801033E-01  6.16462078E-01  2.21006028E-01
  1.14660081E-01  9.19999648E-01 -3.03068213E-03  1.00000000E+00  1.00000000E+00
  1.00000000E+00  1.00000000E+00  2.54938145E-02  1.90373109E-01  8.52161486E-01
  1.00000000E+00  1.00000000E+00  1.00000000E+00  1.00000000E+00  2.54938145E-02
  1.90373109E-01  8.52161486E-01  1.00000000E+00  1.00000000E+00  1.00000000E+00
  1.00000000E+00  2.54938145E-02  1.90373109E-01  8.52161486E-01  1.00000000E+00
  1.00000000E+00  1.00000000E+00  1.00000000E+00  2.54938145E-02  1.90373109E-01
  8.52161486E-01  1.00000000E+00  1.00000000E+00  1.00000000E+00  1.00000000E+00
  2.54938145E-02  1.90373109E-01  8.52161486E-01  1.00000000E+00  1.00000000E+00
  1.00000000E+00  1.00000000E+00  2.54938145E-02  1.90373109E-01  8.52161486E-01
  1.00000000E+00  1.00000000E+00  1.00000000E+00  1.00000000E+00  2.54938145E-02
  1.90373109E-01  8.52161486E-01  1.00000000E+00  1.00000000E+00  1.00000000E+00
  1.00000000E+00  7.38000247E-04  5.71800191E-03  2.94950099E-02  1.17286039E-01
  3.62949121E-01  5.84149195E-01  1.34176973E-01  6.24249876E-01  2.91755942E-01
  1.00000000E+00  1.00000000E+00  1.00000000E+00  1.00000000E+00  1.00000000E+00
  3.66556935E-03  2.83679194E-02  1.24756603E-01  3.39654631E-01  7.47585963E-01
 -1.57224381E+00  9.92388882E-01  1.00000000E+00  1.00000000E+00  1.00000000E+00
  1.00000000E+00
P(S=P) Contraction coefficients            R   N=         126
  0.00000000E+00  0.00000000E+00  0.00000000E+00  0.00000000E+00  0.00000000E+00
  0.00000000E+00  4.02486927E-02  2.37593957E-01  8.15853851E-01  1.00000000E+00
  1.00000000E+00  1.00000000E+00  0.00000000E+00  0.00000000E+00  0.00000000E+00
  0.00000000E+00  0.00000000E+00  0.00000000E+00  0.00000000E+00  4.02486927E-02
  2.37593957E-01  8.15853851E-01  1.00000000E+00  1.00000000E+00  1.00000000E+00
  0.00000000E+00  0.00000000E+00  0.00000000E+00  0.00000000E+00  0.00000000E+00
  0.00000000E+00  0.00000000E+00  4.02486927E-02  2.37593957E-01  8.15853851E-01
  1.00000000E+00  1.00000000E+00  1.00000000E+00  0.00000000E+00  0.00000000E+00
  0.00000000E+00  0.00000000E+00  0.00000000E+00  0.00000000E+00  0.00000000E+00
  4.02486927E-02  2.37593957E-01  8.15853851E-01  1.00000000E+00  1.00000000E+00
  1.00000000E+00  0.00000000E+00  0.00000000E+00  0.00000000E+00  0.00000000E+00
  0.00000000E+00  0.00000000E+00  0.00000000E+00  0.00000000E+00  0.00000000E+00
  0.00000000E+00  0.00000000E+00  0.00000000E+00  0.00000000E+00  0.00000000E+00
  0.00000000E+00  0.00000000E+00  0.00000000E+00  0.00000000E+00  0.00000000E+00
  0.00000000E+00  0.00000000E+00  0.00000000E+00  0.00000000E+00  0.00000000E+00
  0.00000000E+00  0.00000000E+00  0.00000000E+00  0.00000000E+00  0.00000000E+00
  0.00000000E+00  0.00000000E+00  0.00000000E+00  0.00000000E+00  0.00000000E+00
  0.00000000E+00  0.00000000E+00  0.00000000E+00  0.00000000E+00  0.00000000E+00
  0.00000000E+00  0.00000000E+00  0.00000000E+00  0.00000000E+00  0.00000000E+00
  0.00000000E+00  0.00000000E+00  0.00000000E+00  0.00000000E+00  0.00000000E+00
  0.00000000E+00  0.00000000E+00  0.00000000E+00  0.00000000E+00  0.00000000E+00
  0.00000000E+00  0.00000000E+00  0.00000000E+00  0.00000000E+00  0.00000000E+00
  0.00000000E+00  0.00000000E+00  0.00000000E+00  0.00000000E+00  1.00000000E+00
  0.00000000E+00  0.00000000E+00  0.00000000E+00  0.00000000E+00  0.00000000E+00
  0.00000000E+00  0.00000000E+00  0.00000000E+00  0.00000000E+00  0.00000000E+00
  0.00000000E+00
Coordinates of each shell                  R   N=         216
  8.82857080E-01  3.31198915E+00  9.44919065E-02  8.82857080E-01  3.31198915E+00
  9.44919065E-02  8.82857080E-01  3.31198915E+00  9.44919065E-02  8.82857080E-01
  3.31198915E+00  9.44919065E-02  8.82857080E-01  3.31198915E+00  9.44919065E-02
  8.82857080E-01  3.31198915E+00  9.44919065E-02  1.20843534E-02  6.63062325E-01
 -6.05955229E-01  1.20843534E-02  6.63062325E-01 -6.05955229E-01  1.20843534E-02
  6.63062325E-01 -6.05955229E-01  1.20843534E-02  6.63062325E-01 -6.05955229E-01
  1.20843534E-02  6.63062325E-01 -6.05955229E-01  1.20843534E-02  6.63062325E-01
 -6.05955229E-01 -2.28015639E+00 -1.82146742E-01  8.04063124E-01 -2.28015639E+00
 -1.82146742E-01  8.04063124E-01 -2.28015639E+00 -1.82146742E-01  8.04063124E-01
 -2.28015639E+00 -1.82146742E-01  8.04063124E-01 -2.28015639E+00 -1.82146742E-01
  8.04063124E-01 -2.28015639E+00 -1.82146742E-01  8.04063124E-01 -4.41011841E+00
 -9.36046987E-01 -2.99353157E-01 -4.41011841E+00 -9.36046987E-01 -2.99353157E-01
 -4.41011841E+00 -9.36046987E-01 -2.99353157E-01 -4.41011841E+00 -9.36046987E-01
 -2.99353157E-01 -4.41011841E+00 -9.36046987E-01 -2.99353157E-01 -4.41011841E+00
 -9.36046987E-01 -2.99353157E-01 -4.58772301E+00 -1.03253050E+00 -2.32974602E+00
 -4.58772301E+00 -1.03253050E+00 -2.32974602E+00 -4.58772301E+00 -1.03253050E+00
 -2.32974602E+00 -4.58772301E+00 -1.03253050E+00 -2.32974602E+00 -4.58772301E+00
 -1.03253050E+00 -2.32974602E+00  2.68187159E+00  3.84286516E+00 -9.98797550E-01
  2.68187159E+00  3.84286516E+00 -9.98797550E-01  2.68187159E+00  3.84286516E+00
 -9.98797550E-01  2.68187159E+00  3.84286516E+00 -9.98797550E-01  2.68187159E+00
  3.84286516E+00 -9.98797550E-01 -6.03939162E+00 -1.48353722E+00  7.94963245E-01
 -6.03939162E+00 -1.48353722E+00  7.94963245E-01 -6.03939162E+00 -1.48353722E+00
  7.94963245E-01 -6.03939162E+00 -1.48353722E+00  7.94963245E-01 -6.03939162E+00
 -1.48353722E+00  7.94963245E-01 -2.13439777E+00 -1.18199692E-01  2.87453560E+00
 -2.13439777E+00 -1.18199692E-01  2.87453560E+00 -2.13439777E+00 -1.18199692E-01
  2.87453560E+00 -2.13439777E+00 -1.18199692E-01  2.87453560E+00 -2.13439777E+00
 -1.18199692E-01  2.87453560E+00 -2.98155097E-01  4.87672892E-01 -2.68704867E+00
 -2.98155097E-01  4.87672892E-01 -2.68704867E+00 -2.98155097E-01  4.87672892E-01
 -2.68704867E+00 -2.98155097E-01  4.87672892E-01 -2.68704867E+00 -2.98155097E-01
  4.87672892E-01 -2.68704867E+00  1.26110534E+00  3.45029807E+00  2.02814107E+00
  1.26110534E+00  3.45029807E+00  2.02814107E+00  1.26110534E+00  3.45029807E+00
  2.02814107E+00  1.26110534E+00  3.45029807E+00  2.02814107E+00  1.26110534E+00
  3.45029807E+00  2.02814107E+00 -5.96627279E-01  4.66520108E+00 -3.89819974E-01
 -5.96627279E-01  4.66520108E+00 -3.89819974E-01 -5.96627279E-01  4.66520108E+00
 -3.89819974E-01 -5.96627279E-01  4.66520108E+00 -3.89819974E-01 -5.96627279E-01
  4.66520108E+00 -3.89819974E-01  2.61678342E+00 -1.58546566E+00  4.40172020E-02
  2.61678342E+00 -1.58546566E+00  4.40172020E-02  2.61678342E+00 -1.58546566E+00
  4.40172020E-02  2.61678342E+00 -1.58546566E+00  4.40172020E-02  2.61678342E+00
 -1.58546566E+00  4.40172020E-02  2.61678342E+00 -1.58546566E+00  4.40172020E-02
  2.61678342E+00 -1.58546566E+00  4.40172020E-02  2.61678342E+00 -1.58546566E+00
  4.40172020E-02  2.61678342E+00 -1.58546566E+00  4.40172020E-02  2.61678342E+00
 -1.58546566E+00  4.40172020E-02  2.61678342E+00 -1.58546566E+00  4.40172020E-02
  2.61678342E+00 -1.58546566E+00  4.40172020E-02  2.61678342E+00 -1.58546566E+00
  4.40172020E-02
Constraint Structure                       R   N=          36
  8.82857080E-01  3.31198915E+00  9.44919065E-02  1.20843534E-02  6.63062325E-01
 -6.05955229E-01 -2.28015639E+00 -1.82146742E-01  8.04063124E-01 -4.41011841E+00
 -9.36046987E-01 -2.99353157E-01 -4.58772301E+00 -1.03253050E+00 -2.32974602E+00
  2.68187159E+00  3.84286516E+00 -9.98797550E-01 -6.03939162E+00 -1.48353722E+00
  7.94963245E-01 -2.13439777E+00 -1.18199692E-01  2.87453560E+00 -2.98155097E-01
  4.87672892E-01 -2.68704867E+00  1.26110534E+00  3.45029807E+00  2.02814107E+00
 -5.96627279E-01  4.66520108E+00 -3.89819974E-01  2.61678342E+00 -1.58546566E+00
  4.40172020E-02
Num ILSW                                   I              100
ILSW                                       I   N=         100
           0           0           0           0           2           0
           0           0           0           0         402          -1
           5           0           0           0           0           0
           0           0           0           0           0           0
           1           0           0           0           0           0
           0           0      100000           0          -1           0
           0           0           0           0           0           0
           0           0           0           1           0           0
           0           0           1           0           0           0
           0           0           4          41           0           0
           0           0           5           0           0           0
           0           0           0           0           0           0
           0           0           0           0           0           0
           0           0           0           0           0           0
           0           0           0           0           0           0
           0           0           0           0           0           0
           0           0           0           0
Num RLSW                                   I               41
RLSW                                       R   N=          41
  8.00000000E-01  7.20000000E-01  1.00000000E+00  8.10000000E-01  2.00000000E-01
  0.00000000E+00  0.00000000E+00  1.00000000E+00  0.00000000E+00  0.00000000E+00
  0.00000000E+00  0.00000000E+00  1.00000000E+00  0.00000000E+00  0.00000000E+00
  0.00000000E+00  0.00000000E+00  1.00000000E+00  0.00000000E+00  0.00000000E+00
  0.00000000E+00  0.00000000E+00  1.00000000E+00  0.00000000E+00  0.00000000E+00
  0.00000000E+00  0.00000000E+00  1.00000000E+00  0.00000000E+00  0.00000000E+00
  0.00000000E+00  0.00000000E+00  0.00000000E+00  0.00000000E+00  0.00000000E+00
  0.00000000E+00  0.00000000E+00  0.00000000E+00  1.00000000E+00  1.00000000E+00
  0.00000000E+00
MxBond                                     I                4
NBond                                      I   N=          12
           4           4           3           3           1           1
           1           1           1           1           1           1
IBond                                      I   N=          48
           2           6          10          11           1           3
           9          12           2           4           8           0
           3           5           7           0           4           0
           0           0           1           0           0           0
           4           0           0           0           3           0
           0           0           2           0           0           0
           1           0           0           0           1           0
           0           0           2           0           0           0
RBond                                      R   N=          48
  1.00000000E+00  1.00000000E+00  1.00000000E+00  1.00000000E+00  1.00000000E+00
  1.00000000E+00  1.00000000E+00  1.00000000E+00  1.00000000E+00  2.00000000E+00
  1.00000000E+00  0.00000000E+00  2.00000000E+00  1.00000000E+00  1.00000000E+00
  0.00000000E+00  1.00000000E+00  0.00000000E+00  0.00000000E+00  0.00000000E+00
  1.00000000E+00  0.00000000E+00  0.00000000E+00  0.00000000E+00  1.00000000E+00
  0.00000000E+00  0.00000000E+00  0.00000000E+00  1.00000000E+00  0.00000000E+00
  0.00000000E+00  0.00000000E+00  1.00000000E+00  0.00000000E+00  0.00000000E+00
  0.00000000E+00  1.00000000E+00  0.00000000E+00  0.00000000E+00  0.00000000E+00
  1.00000000E+00  0.00000000E+00  0.00000000E+00  0.00000000E+00  1.00000000E+00
  0.00000000E+00  0.00000000E+00  0.00000000E+00
Virial Ratio                               R      2.003101064360233E+00
SCF Energy                                 R     -6.168919607425719E+02
Total Energy                               R     -6.168919607425719E+02
RMS Density                                R      4.780343013797249E-12
Nuclear derivative order                   I                0
External E-field                           R   N=          35
  0.00000000E+00  0.00000000E+00  0.00000000E+00  0.00000000E+00  0.00000000E+00
  0.00000000E+00  0.00000000E+00  0.00000000E+00  0.00000000E+00  0.00000000E+00
  0.00000000E+00  0.00000000E+00  0.00000000E+00  0.00000000E+00  0.00000000E+00
  0.00000000E+00  0.00000000E+00  0.00000000E+00  0.00000000E+00  0.00000000E+00
  0.00000000E+00  0.00000000E+00  0.00000000E+00  0.00000000E+00  0.00000000E+00
  0.00000000E+00  0.00000000E+00  0.00000000E+00  0.00000000E+00  0.00000000E+00
  0.00000000E+00  0.00000000E+00  0.00000000E+00  0.00000000E+00  0.00000000E+00
IOpCl                                      I                0
IROHF                                      I                0
Alpha Orbital Energies                     R   N=         167
 -1.01534197E+02 -1.02499784E+01 -1.01953589E+01 -1.01832103E+01 -1.01819728E+01
 -9.44861659E+00 -7.21296702E+00 -7.20352963E+00 -7.20336574E+00 -8.67189482E-01
 -7.87291752E-01 -7.42609991E-01 -6.39506934E-01 -5.75683836E-01 -4.86130252E-01
 -4.75498807E-01 -4.45239940E-01 -4.16210959E-01 -4.02515111E-01 -3.76217036E-01
 -3.64674352E-01 -3.06002968E-01 -2.98350096E-01 -2.80609379E-01 -3.33811540E-02
 -7.68811649E-03  6.27257910E-03  6.39929508E-03  2.21823015E-02  2.83778922E-02
  3.83059028E-02  4.13312641E-02  6.34648025E-02  6.47346803E-02  7.19635010E-02
  8.34673263E-02  8.75578878E-02  9.86173888E-02  1.10595561E-01  1.15338816E-01
  1.18514773E-01  1.21222361E-01  1.28135307E-01  1.30709249E-01  1.35286753E-01
  1.41728442E-01  1.49909896E-01  1.56662990E-01  1.60572733E-01  1.63903205E-01
  1.73733560E-01  1.83299810E-01  1.92021380E-01  2.11717649E-01  2.18146916E-01
  2.26788319E-01  2.46065614E-01  2.61200574E-01  2.70440310E-01  2.91378327E-01
  3.42930456E-01  3.56511674E-01  3.90376311E-01  4.25335553E-01  4.30365530E-01
  4.48178477E-01  4.58928317E-01  4.78120838E-01  4.87974944E-01  4.95620732E-01
  5.22282996E-01  5.30022060E-01  5.66270322E-01  5.85712709E-01  5.99147437E-01
  6.22760565E-01  6.30355163E-01  6.45274928E-01  6.56209562E-01  6.60222648E-01
  6.89772359E-01  7.01753042E-01  7.38545318E-01  7.41097255E-01  7.86716902E-01
  8.16423138E-01  8.31421372E-01  8.62880923E-01  8.91270087E-01  9.02223904E-01
  9.43434553E-01  9.60151252E-01  1.00620959E+00  1.03130220E+00  1.06469901E+00
  1.08306986E+00  1.12504310E+00  1.17527054E+00  1.19793325E+00  1.29190096E+00
  1.39289021E+00  1.43015441E+00  1.44982137E+00  1.46814522E+00  1.50218931E+00
  1.54182692E+00  1.56799149E+00  1.58312782E+00  1.58552281E+00  1.62893495E+00
  1.66406789E+00  1.68821632E+00  1.70014186E+00  1.72046411E+00  1.76890114E+00
  1.78611448E+00  1.86407097E+00  1.87749760E+00  1.93263488E+00  1.98814662E+00
  2.01449222E+00  2.06703057E+00  2.12003377E+00  2.17532905E+00  2.19052183E+00
  2.19209683E+00  2.24477082E+00  2.29546574E+00  2.30572115E+00  2.35570253E+00
  2.36868234E+00  2.42049356E+00  2.46038507E+00  2.49051109E+00  2.53070319E+00
  2.55352887E+00  2.56868678E+00  2.58536819E+00  2.63381962E+00  2.65873680E+00
  2.72956010E+00  2.73276995E+00  2.75126179E+00  2.77176468E+00  2.85603585E+00
  2.86807877E+00  2.92922296E+00  3.08062341E+00  3.08614739E+00  3.18044819E+00
  3.39655109E+00  3.50443290E+00  3.72334038E+00  3.74622202E+00  3.83724549E+00
  3.93294935E+00  4.11379953E+00  4.27778335E+00  9.75622677E+00  2.37078053E+01
  2.37806070E+01  2.39481437E+01  2.42550388E+01  2.59301774E+01  2.59740168E+01
  2.64455829E+01  2.15746111E+02
Alpha MO coefficients                      R   N=       27889
  1.33334726E-07 -2.54525369E-07 -2.42047398E-06 -2.08509685E-06 -1.41366601E-06
  1.05530639E-07  1.64010886E-05  1.41992646E-05  1.58707825E-05  1.70373880E-05
  3.53836809E-05  3.01819454E-05  2.52096779E-05 -1.67125040E-03 -1.48084792E-04
  5.10534018E-04  3.67004182E-05  9.31316547E-06 -1.08294205E-06 -4.92323142E-06
  1.20109760E-05 -5.28944748E-10  1.40963583E-06 -2.87998183E-06  1.21778106E-05
 -1.19732057E-05  5.19197799E-06 -1.65223330E-05 -1.37188094E-05  1.96327014E-05
 -1.70695405E-05  1.65291893E-04  1.30215774E-04 -1.21413269E-04 -5.46903241E-06
  3.77711710E-03 -4.84397318E-04  4.58627913E-04  8.40173112E-04  8.58506955E-06
 -1.74482995E-06  3.02482178E-06 -2.56875269E-06  7.95034805E-06 -6.28820875E-07
  1.82937181E-06  4.16202669E-06 -2.54670940E-06 -4.21080403E-06 -8.82363989E-06
 -2.46688371E-05  9.70864584E-06  2.47353819E-05  2.32792023E-05  1.34232138E-05
 -1.01632650E-05 -6.29903213E-05 -1.10733333E-03 -1.23600498E-03 -3.93313159E-04
 -1.11163872E-04  6.35512161E-06  5.92915399E-06 -5.90034114E-06  7.57841928E-07
 -4.26066668E-06  3.18019698E-07 -9.46201409E-07 -1.78413088E-06  6.49242115E-07
  7.27500992E-07  9.79786585E-06  8.28007148E-06 -2.43862246E-06  1.63915000E-06
 -5.88459386E-05 -8.73441976E-05 -2.07187554E-05  6.29806716E-05 -1.71293838E-03
 -3.49096634E-04 -1.82852572E-04 -1.29016402E-04 -5.07915696E-06 -1.93327144E-06
 -3.59284005E-06 -1.83560480E-06 -1.69919991E-06 -3.13615810E-06  3.57874010E-05
  6.03940957E-05  4.48832073E-05  6.75636296E-06 -4.59156723E-08  6.46412491E-06
  1.30350180E-05 -7.60587165E-05  7.59330128E-05  2.08951336E-04  6.01987419E-06
  1.22760422E-05 -9.56126409E-06  2.30768877E-06 -2.15725332E-05 -5.31991075E-05
 -1.32297328E-04 -9.90391283E-07 -2.58398367E-07  1.25694877E-06  5.95603393E-06
 -3.39779988E-05  6.30727260E-05  1.46561961E-04 -1.10299504E-05  1.83507557E-06
  1.31393312E-05 -5.63440588E-07 -5.73625100E-05 -1.14482972E-04  1.25100703E-04
 -6.69049783E-06  2.39813012E-06 -1.50150999E-05  9.30761315E-06 -7.11843978E-05
 -1.90038813E-05  8.45006270E-05 -4.10893884E-06  1.27309945E-05  1.79373739E-05
 -7.86769475E-06  3.87848777E-05 -1.38220507E-04 -3.09776154E-04  3.74040595E-07
 -5.03164461E-06 -7.85686920E-07  4.11609658E-01  6.54076180E-01  1.50039524E-02