(R)-3-chloro-1-butene tau=120                                           
SP        RB3LYP                                                      6-311++G(d,p)       
Number of atoms                            I               12
Info1-9                                    I   N=           9
          26          26           0           0           0         110
           1          18        -502
Full Title                                 C   N=           3
(R)-3-chloro-1-butene tau=120       
Route                                      C   N=           7
#P B3LYP/6-311++G** scf(conver=11) int=ultrafine polar=optro
t cphf(rdfreq,conver=11)
Charge                                     I                0
Multiplicity                               I                1
Number of electrons                        I               48
Number of alpha electrons                  I               24
Number of beta electrons                   I               24
Number of basis functions                  I              167
Number of independent functions            I              167
Number of point charges in /Mol/           I                0
Number of translation vectors              I                0
Atomic numbers                             I   N=          12
           6           6           6           6           1           1
           1           1           1           1           1          17
Nuclear charges                            R   N=          12
  6.00000000E+00  6.00000000E+00  6.00000000E+00  6.00000000E+00  1.00000000E+00
  1.00000000E+00  1.00000000E+00  1.00000000E+00  1.00000000E+00  1.00000000E+00
  1.00000000E+00  1.70000000E+01
Current cartesian coordinates              R   N=          36
 -8.89615817E-01  3.31377670E+00 -7.77357352E-02 -1.27574067E-02  6.62031225E-01
  6.10246918E-01  2.27852574E+00 -1.80475014E-01 -8.10116389E-01  4.40105810E+00
 -9.33602383E-01  2.88413972E-01  4.59676939E+00 -1.04202852E+00  2.43698547E+00
 -2.60712661E+00  3.82001971E+00  9.64338434E-01  6.11149255E+00 -1.50673704E+00
 -8.55551282E-01  2.13382481E+00 -1.13999600E-01 -2.82548204E+00  2.94561541E-01
  4.86267223E-01  2.65758041E+00 -1.27884799E+00  3.45930795E+00 -2.08890347E+00
  5.98874260E-01  4.66865196E+00  4.01765717E-01 -2.61840068E+00 -1.58481558E+00
 -4.44462252E-02
Number of symbols in /Mol/                 I                0
Force Field                                I                0
Atom Types                                 C   N=          12
                                                            
                                                            
                        
Int Atom Types                             I   N=          12
           0           0           0           0           0           0
           0           0           0           0           0           0
MM charges                                 R   N=          12
  0.00000000E+00  0.00000000E+00  0.00000000E+00  0.00000000E+00  0.00000000E+00
  0.00000000E+00  0.00000000E+00  0.00000000E+00  0.00000000E+00  0.00000000E+00
  0.00000000E+00  0.00000000E+00
Integer atomic weights                     I   N=          12
          12          12          12          12           1           1
           1           1           1           1           1          35
Real atomic weights                        R   N=          12
  1.20000000E+01  1.20000000E+01  1.20000000E+01  1.20000000E+01  1.00782504E+00
  1.00782504E+00  1.00782504E+00  1.00782504E+00  1.00782504E+00  1.00782504E+00
  1.00782504E+00  3.49688527E+01
Atom fragment info                         I   N=          12
           0           0           0           0           0           0
           0           0           0           0           0           0
Atom residue num                           I   N=          12
           0           0           0           0           0           0
           0           0           0           0           0           0
Nuclear spins                              I   N=          12
           0           0           0           0           1           1
           1           1           1           1           1           3
Nuclear ZEff                               R   N=          12
 -3.60000000E+00 -3.60000000E+00 -3.60000000E+00 -3.60000000E+00 -1.00000000E+00
 -1.00000000E+00 -1.00000000E+00 -1.00000000E+00 -1.00000000E+00 -1.00000000E+00
 -1.00000000E+00 -1.42400000E+01
Nuclear ZNuc                               R   N=          12
  6.00000000E+00  6.00000000E+00  6.00000000E+00  6.00000000E+00  1.00000000E+00
  1.00000000E+00  1.00000000E+00  1.00000000E+00  1.00000000E+00  1.00000000E+00
  1.00000000E+00  1.70000000E+01
Nuclear QMom                               R   N=          12
  0.00000000E+00  0.00000000E+00  0.00000000E+00  0.00000000E+00  0.00000000E+00
  0.00000000E+00  0.00000000E+00  0.00000000E+00  0.00000000E+00  0.00000000E+00
  0.00000000E+00 -8.16500000E+00
Nuclear GFac                               R   N=          12
  0.00000000E+00  0.00000000E+00  0.00000000E+00  0.00000000E+00  2.79284600E+00
  2.79284600E+00  2.79284600E+00  2.79284600E+00  2.79284600E+00  2.79284600E+00
  2.79284600E+00  8.21874000E-01
MicOpt                                     I   N=          12
          -1          -1          -1          -1          -1          -1
          -1          -1          -1          -1          -1          -1
Number of residues                         I                0
Number of secondary structures             I                0
SymInf integers                            I   N=          26
           1           1           1           1           1           0
           0           0           0           0           0           0
           0           0           0           0           0           0
           0           0           0           0           0           0
           0           0
RotTr to input orientation                 R   N=          12
 -9.99999469E-01 -1.03006351E-03  0.00000000E+00 -1.03006351E-03  9.99999469E-01
 -0.00000000E+00  0.00000000E+00  0.00000000E+00 -1.00000000E+00 -7.62582446E-04
 -2.83692380E-04 -1.21169122E-03
Number of contracted shells                I               72
Number of primitive shells                 I              126
Pure/Cartesian d shells                    I                0
Pure/Cartesian f shells                    I                0
Highest angular momentum                   I                2
Largest degree of contraction              I                6
Shell types                                I   N=          72
           0          -1          -1          -1          -1          -2
           0          -1          -1          -1          -1          -2
           0          -1          -1          -1          -1          -2
           0          -1          -1          -1          -1          -2
           0           0           0           0           1           0
           0           0           0           1           0           0
           0           0           1           0           0           0
           0           1           0           0           0           0
           1           0           0           0           0           1
           0           0           0           0           1           0
           0           0           0           0           0          -1
           1           1           1           1           1          -2
Number of primitives per shell             I   N=          72
           6           3           1           1           1           1
           6           3           1           1           1           1
           6           3           1           1           1           1
           6           3           1           1           1           1
           3           1           1           1           1           3
           1           1           1           1           3           1
           1           1           1           3           1           1
           1           1           3           1           1           1
           1           3           1           1           1           1
           3           1           1           1           1           6
           3           1           1           1           1           1
           5           2           1           1           1           1
Shell to atom map                          I   N=          72
           1           1           1           1           1           1
           2           2           2           2           2           2
           3           3           3           3           3           3
           4           4           4           4           4           4
           5           5           5           5           5           6
           6           6           6           6           7           7
           7           7           7           8           8           8
           8           8           9           9           9           9
           9          10          10          10          10          10
          11          11          11          11          11          12
          12          12          12          12          12          12
          12          12          12          12          12          12
Primitive exponents                        R   N=         126
  4.56324000E+03  6.82024000E+02  1.54973000E+02  4.44553000E+01  1.30290000E+01
  1.82773000E+00  2.09642000E+01  4.80331000E+00  1.45933000E+00  4.83456000E-01
  1.45585000E-01  4.38000000E-02  6.26000000E-01  4.56324000E+03  6.82024000E+02
  1.54973000E+02  4.44553000E+01  1.30290000E+01  1.82773000E+00  2.09642000E+01
  4.80331000E+00  1.45933000E+00  4.83456000E-01  1.45585000E-01  4.38000000E-02
  6.26000000E-01  4.56324000E+03  6.82024000E+02  1.54973000E+02  4.44553000E+01
  1.30290000E+01  1.82773000E+00  2.09642000E+01  4.80331000E+00  1.45933000E+00
  4.83456000E-01  1.45585000E-01  4.38000000E-02  6.26000000E-01  4.56324000E+03
  6.82024000E+02  1.54973000E+02  4.44553000E+01  1.30290000E+01  1.82773000E+00
  2.09642000E+01  4.80331000E+00  1.45933000E+00  4.83456000E-01  1.45585000E-01
  4.38000000E-02  6.26000000E-01  3.38650000E+01  5.09479000E+00  1.15879000E+00
  3.25840000E-01  1.02741000E-01  3.60000000E-02  7.50000000E-01  3.38650000E+01
  5.09479000E+00  1.15879000E+00  3.25840000E-01  1.02741000E-01  3.60000000E-02
  7.50000000E-01  3.38650000E+01  5.09479000E+00  1.15879000E+00  3.25840000E-01
  1.02741000E-01  3.60000000E-02  7.50000000E-01  3.38650000E+01  5.09479000E+00
  1.15879000E+00  3.25840000E-01  1.02741000E-01  3.60000000E-02  7.50000000E-01
  3.38650000E+01  5.09479000E+00  1.15879000E+00  3.25840000E-01  1.02741000E-01
  3.60000000E-02  7.50000000E-01  3.38650000E+01  5.09479000E+00  1.15879000E+00
  3.25840000E-01  1.02741000E-01  3.60000000E-02  7.50000000E-01  3.38650000E+01
  5.09479000E+00  1.15879000E+00  3.25840000E-01  1.02741000E-01  3.60000000E-02
  7.50000000E-01  1.05819000E+05  1.58720000E+04  3.61965000E+03  1.03080000E+03
  3.39908000E+02  1.24538000E+02  1.24538000E+02  4.95135000E+01  2.08056000E+01
  6.58346000E+00  2.56468000E+00  5.59763000E-01  1.83273000E-01  4.83000000E-02
  5.89776000E+02  1.39849000E+02  4.51413000E+01  1.68733000E+01  2.77152000E+00
  6.74110000E+00  2.77152000E+00  1.02387000E+00  3.81368000E-01  1.09437000E-01
  7.50000000E-01
Contraction coefficients                   R   N=         126
  1.96665025E-03  1.52306019E-02  7.61269097E-02  2.60801033E-01  6.16462078E-01
  2.21006028E-01  1.14660081E-01  9.19999648E-01 -3.03068213E-03  1.00000000E+00
  1.00000000E+00  1.00000000E+00  1.00000000E+00  1.96665025E-03  1.52306019E-02
  7.61269097E-02  2.60801033E-01  6.16462078E-01  2.21006028E-01  1.14660081E-01
  9.19999648E-01 -3.03068213E-03  1.00000000E+00  1.00000000E+00  1.00000000E+00
  1.00000000E+00  1.96665025E-03  1.52306019E-02  7.61269097E-02  2.60801033E-01
  6.16462078E-01  2.21006028E-01  1.14660081E-01  9.19999648E-01 -3.03068213E-03
  1.00000000E+00  1.00000000E+00  1.00000000E+00  1.00000000E+00  1.96665025E-03
  1.52306019E-02  7.61269097E-02  2.60801033E-01  6.16462078E-01  2.21006028E-01
  1.14660081E-01  9.19999648E-01 -3.03068213E-03  1.00000000E+00  1.00000000E+00
  1.00000000E+00  1.00000000E+00  2.54938145E-02  1.90373109E-01  8.52161486E-01
  1.00000000E+00  1.00000000E+00  1.00000000E+00  1.00000000E+00  2.54938145E-02
  1.90373109E-01  8.52161486E-01  1.00000000E+00  1.00000000E+00  1.00000000E+00
  1.00000000E+00  2.54938145E-02  1.90373109E-01  8.52161486E-01  1.00000000E+00
  1.00000000E+00  1.00000000E+00  1.00000000E+00  2.54938145E-02  1.90373109E-01
  8.52161486E-01  1.00000000E+00  1.00000000E+00  1.00000000E+00  1.00000000E+00
  2.54938145E-02  1.90373109E-01  8.52161486E-01  1.00000000E+00  1.00000000E+00
  1.00000000E+00  1.00000000E+00  2.54938145E-02  1.90373109E-01  8.52161486E-01
  1.00000000E+00  1.00000000E+00  1.00000000E+00  1.00000000E+00  2.54938145E-02
  1.90373109E-01  8.52161486E-01  1.00000000E+00  1.00000000E+00  1.00000000E+00
  1.00000000E+00  7.38000247E-04  5.71800191E-03  2.94950099E-02  1.17286039E-01
  3.62949121E-01  5.84149195E-01  1.34176973E-01  6.24249876E-01  2.91755942E-01
  1.00000000E+00  1.00000000E+00  1.00000000E+00  1.00000000E+00  1.00000000E+00
  3.66556935E-03  2.83679194E-02  1.24756603E-01  3.39654631E-01  7.47585963E-01
 -1.57224381E+00  9.92388882E-01  1.00000000E+00  1.00000000E+00  1.00000000E+00
  1.00000000E+00
P(S=P) Contraction coefficients            R   N=         126
  0.00000000E+00  0.00000000E+00  0.00000000E+00  0.00000000E+00  0.00000000E+00
  0.00000000E+00  4.02486927E-02  2.37593957E-01  8.15853851E-01  1.00000000E+00
  1.00000000E+00  1.00000000E+00  0.00000000E+00  0.00000000E+00  0.00000000E+00
  0.00000000E+00  0.00000000E+00  0.00000000E+00  0.00000000E+00  4.02486927E-02
  2.37593957E-01  8.15853851E-01  1.00000000E+00  1.00000000E+00  1.00000000E+00
  0.00000000E+00  0.00000000E+00  0.00000000E+00  0.00000000E+00  0.00000000E+00
  0.00000000E+00  0.00000000E+00  4.02486927E-02  2.37593957E-01  8.15853851E-01
  1.00000000E+00  1.00000000E+00  1.00000000E+00  0.00000000E+00  0.00000000E+00
  0.00000000E+00  0.00000000E+00  0.00000000E+00  0.00000000E+00  0.00000000E+00
  4.02486927E-02  2.37593957E-01  8.15853851E-01  1.00000000E+00  1.00000000E+00
  1.00000000E+00  0.00000000E+00  0.00000000E+00  0.00000000E+00  0.00000000E+00
  0.00000000E+00  0.00000000E+00  0.00000000E+00  0.00000000E+00  0.00000000E+00
  0.00000000E+00  0.00000000E+00  0.00000000E+00  0.00000000E+00  0.00000000E+00
  0.00000000E+00  0.00000000E+00  0.00000000E+00  0.00000000E+00  0.00000000E+00
  0.00000000E+00  0.00000000E+00  0.00000000E+00  0.00000000E+00  0.00000000E+00
  0.00000000E+00  0.00000000E+00  0.00000000E+00  0.00000000E+00  0.00000000E+00
  0.00000000E+00  0.00000000E+00  0.00000000E+00  0.00000000E+00  0.00000000E+00
  0.00000000E+00  0.00000000E+00  0.00000000E+00  0.00000000E+00  0.00000000E+00
  0.00000000E+00  0.00000000E+00  0.00000000E+00  0.00000000E+00  0.00000000E+00
  0.00000000E+00  0.00000000E+00  0.00000000E+00  0.00000000E+00  0.00000000E+00
  0.00000000E+00  0.00000000E+00  0.00000000E+00  0.00000000E+00  0.00000000E+00
  0.00000000E+00  0.00000000E+00  0.00000000E+00  0.00000000E+00  0.00000000E+00
  0.00000000E+00  0.00000000E+00  0.00000000E+00  0.00000000E+00  1.00000000E+00
  0.00000000E+00  0.00000000E+00  0.00000000E+00  0.00000000E+00  0.00000000E+00
  0.00000000E+00  0.00000000E+00  0.00000000E+00  0.00000000E+00  0.00000000E+00
  0.00000000E+00
Coordinates of each shell                  R   N=         216
 -8.89615817E-01  3.31377670E+00 -7.77357352E-02 -8.89615817E-01  3.31377670E+00
 -7.77357352E-02 -8.89615817E-01  3.31377670E+00 -7.77357352E-02 -8.89615817E-01
  3.31377670E+00 -7.77357352E-02 -8.89615817E-01  3.31377670E+00 -7.77357352E-02
 -8.89615817E-01  3.31377670E+00 -7.77357352E-02 -1.27574067E-02  6.62031225E-01
  6.10246918E-01 -1.27574067E-02  6.62031225E-01  6.10246918E-01 -1.27574067E-02
  6.62031225E-01  6.10246918E-01 -1.27574067E-02  6.62031225E-01  6.10246918E-01
 -1.27574067E-02  6.62031225E-01  6.10246918E-01 -1.27574067E-02  6.62031225E-01
  6.10246918E-01  2.27852574E+00 -1.80475014E-01 -8.10116389E-01  2.27852574E+00
 -1.80475014E-01 -8.10116389E-01  2.27852574E+00 -1.80475014E-01 -8.10116389E-01
  2.27852574E+00 -1.80475014E-01 -8.10116389E-01  2.27852574E+00 -1.80475014E-01
 -8.10116389E-01  2.27852574E+00 -1.80475014E-01 -8.10116389E-01  4.40105810E+00
 -9.33602383E-01  2.88413972E-01  4.40105810E+00 -9.33602383E-01  2.88413972E-01
  4.40105810E+00 -9.33602383E-01  2.88413972E-01  4.40105810E+00 -9.33602383E-01
  2.88413972E-01  4.40105810E+00 -9.33602383E-01  2.88413972E-01  4.40105810E+00
 -9.33602383E-01  2.88413972E-01  4.59676939E+00 -1.04202852E+00  2.43698547E+00
  4.59676939E+00 -1.04202852E+00  2.43698547E+00  4.59676939E+00 -1.04202852E+00
  2.43698547E+00  4.59676939E+00 -1.04202852E+00  2.43698547E+00  4.59676939E+00
 -1.04202852E+00  2.43698547E+00 -2.60712661E+00  3.82001971E+00  9.64338434E-01
 -2.60712661E+00  3.82001971E+00  9.64338434E-01 -2.60712661E+00  3.82001971E+00
  9.64338434E-01 -2.60712661E+00  3.82001971E+00  9.64338434E-01 -2.60712661E+00
  3.82001971E+00  9.64338434E-01  6.11149255E+00 -1.50673704E+00 -8.55551282E-01
  6.11149255E+00 -1.50673704E+00 -8.55551282E-01  6.11149255E+00 -1.50673704E+00
 -8.55551282E-01  6.11149255E+00 -1.50673704E+00 -8.55551282E-01  6.11149255E+00
 -1.50673704E+00 -8.55551282E-01  2.13382481E+00 -1.13999600E-01 -2.82548204E+00
  2.13382481E+00 -1.13999600E-01 -2.82548204E+00  2.13382481E+00 -1.13999600E-01
 -2.82548204E+00  2.13382481E+00 -1.13999600E-01 -2.82548204E+00  2.13382481E+00
 -1.13999600E-01 -2.82548204E+00  2.94561541E-01  4.86267223E-01  2.65758041E+00
  2.94561541E-01  4.86267223E-01  2.65758041E+00  2.94561541E-01  4.86267223E-01
  2.65758041E+00  2.94561541E-01  4.86267223E-01  2.65758041E+00  2.94561541E-01
  4.86267223E-01  2.65758041E+00 -1.27884799E+00  3.45930795E+00 -2.08890347E+00
 -1.27884799E+00  3.45930795E+00 -2.08890347E+00 -1.27884799E+00  3.45930795E+00
 -2.08890347E+00 -1.27884799E+00  3.45930795E+00 -2.08890347E+00 -1.27884799E+00
  3.45930795E+00 -2.08890347E+00  5.98874260E-01  4.66865196E+00  4.01765717E-01
  5.98874260E-01  4.66865196E+00  4.01765717E-01  5.98874260E-01  4.66865196E+00
  4.01765717E-01  5.98874260E-01  4.66865196E+00  4.01765717E-01  5.98874260E-01
  4.66865196E+00  4.01765717E-01 -2.61840068E+00 -1.58481558E+00 -4.44462252E-02
 -2.61840068E+00 -1.58481558E+00 -4.44462252E-02 -2.61840068E+00 -1.58481558E+00
 -4.44462252E-02 -2.61840068E+00 -1.58481558E+00 -4.44462252E-02 -2.61840068E+00
 -1.58481558E+00 -4.44462252E-02 -2.61840068E+00 -1.58481558E+00 -4.44462252E-02
 -2.61840068E+00 -1.58481558E+00 -4.44462252E-02 -2.61840068E+00 -1.58481558E+00
 -4.44462252E-02 -2.61840068E+00 -1.58481558E+00 -4.44462252E-02 -2.61840068E+00
 -1.58481558E+00 -4.44462252E-02 -2.61840068E+00 -1.58481558E+00 -4.44462252E-02
 -2.61840068E+00 -1.58481558E+00 -4.44462252E-02 -2.61840068E+00 -1.58481558E+00
 -4.44462252E-02
Constraint Structure                       R   N=          36
 -8.89615817E-01  3.31377670E+00 -7.77357352E-02 -1.27574067E-02  6.62031225E-01
  6.10246918E-01  2.27852574E+00 -1.80475014E-01 -8.10116389E-01  4.40105810E+00
 -9.33602383E-01  2.88413972E-01  4.59676939E+00 -1.04202852E+00  2.43698547E+00
 -2.60712661E+00  3.82001971E+00  9.64338434E-01  6.11149255E+00 -1.50673704E+00
 -8.55551282E-01  2.13382481E+00 -1.13999600E-01 -2.82548204E+00  2.94561541E-01
  4.86267223E-01  2.65758041E+00 -1.27884799E+00  3.45930795E+00 -2.08890347E+00
  5.98874260E-01  4.66865196E+00  4.01765717E-01 -2.61840068E+00 -1.58481558E+00
 -4.44462252E-02
Num ILSW                                   I              100
ILSW                                       I   N=         100
           0           0           0           0           2           0
           0           0           0           0         402          -1
           5           0           0           0           0           0
           0           0           0           0           0           0
           1           0           0           0           0           0
           0           0      100000           0          -1           0
           0           0           0           0           0           0
           0           0           0           1           0           0
           0           0           1           0           0           0
           0           0           4          41           0           0
           0           0           5           0           0           0
           0           0           0           0           0           0
           0           0           0           0           0           0
           0           0           0           0           0           0
           0           0           0           0           0           0
           0           0           0           0           0           0
           0           0           0           0
Num RLSW                                   I               41
RLSW                                       R   N=          41
  8.00000000E-01  7.20000000E-01  1.00000000E+00  8.10000000E-01  2.00000000E-01
  0.00000000E+00  0.00000000E+00  1.00000000E+00  0.00000000E+00  0.00000000E+00
  0.00000000E+00  0.00000000E+00  1.00000000E+00  0.00000000E+00  0.00000000E+00
  0.00000000E+00  0.00000000E+00  1.00000000E+00  0.00000000E+00  0.00000000E+00
  0.00000000E+00  0.00000000E+00  1.00000000E+00  0.00000000E+00  0.00000000E+00
  0.00000000E+00  0.00000000E+00  1.00000000E+00  0.00000000E+00  0.00000000E+00
  0.00000000E+00  0.00000000E+00  0.00000000E+00  0.00000000E+00  0.00000000E+00
  0.00000000E+00  0.00000000E+00  0.00000000E+00  1.00000000E+00  1.00000000E+00
  0.00000000E+00
MxBond                                     I                4
NBond                                      I   N=          12
           4           4           3           3           1           1
           1           1           1           1           1           1
IBond                                      I   N=          48
           2           6          10          11           1           3
           9          12           2           4           8           0
           3           5           7           0           4           0
           0           0           1           0           0           0
           4           0           0           0           3           0
           0           0           2           0           0           0
           1           0           0           0           1           0
           0           0           2           0           0           0
RBond                                      R   N=          48
  1.00000000E+00  1.00000000E+00  1.00000000E+00  1.00000000E+00  1.00000000E+00
  1.00000000E+00  1.00000000E+00  1.00000000E+00  1.00000000E+00  2.00000000E+00
  1.00000000E+00  0.00000000E+00  2.00000000E+00  1.00000000E+00  1.00000000E+00
  0.00000000E+00  1.00000000E+00  0.00000000E+00  0.00000000E+00  0.00000000E+00
  1.00000000E+00  0.00000000E+00  0.00000000E+00  0.00000000E+00  1.00000000E+00
  0.00000000E+00  0.00000000E+00  0.00000000E+00  1.00000000E+00  0.00000000E+00
  0.00000000E+00  0.00000000E+00  1.00000000E+00  0.00000000E+00  0.00000000E+00
  0.00000000E+00  1.00000000E+00  0.00000000E+00  0.00000000E+00  0.00000000E+00
  1.00000000E+00  0.00000000E+00  0.00000000E+00  0.00000000E+00  1.00000000E+00
  0.00000000E+00  0.00000000E+00  0.00000000E+00
Virial Ratio                               R      2.003225821418631E+00
SCF Energy                                 R     -6.168923072288078E+02
Total Energy                               R     -6.168923072288078E+02
RMS Density                                R      9.439968500626836E-12
Nuclear derivative order                   I                0
External E-field                           R   N=          35
  0.00000000E+00  0.00000000E+00  0.00000000E+00  0.00000000E+00  0.00000000E+00
  0.00000000E+00  0.00000000E+00  0.00000000E+00  0.00000000E+00  0.00000000E+00
  0.00000000E+00  0.00000000E+00  0.00000000E+00  0.00000000E+00  0.00000000E+00
  0.00000000E+00  0.00000000E+00  0.00000000E+00  0.00000000E+00  0.00000000E+00
  0.00000000E+00  0.00000000E+00  0.00000000E+00  0.00000000E+00  0.00000000E+00
  0.00000000E+00  0.00000000E+00  0.00000000E+00  0.00000000E+00  0.00000000E+00
  0.00000000E+00  0.00000000E+00  0.00000000E+00  0.00000000E+00  0.00000000E+00
IOpCl                                      I                0
IROHF                                      I                0
Alpha Orbital Energies                     R   N=         167
 -1.01534246E+02 -1.02485364E+01 -1.01937364E+01 -1.01922591E+01 -1.01815071E+01
 -9.44867065E+00 -7.21301084E+00 -7.20358830E+00 -7.20342500E+00 -8.67624164E-01
 -7.86804841E-01 -7.41841482E-01 -6.36353904E-01 -5.75782353E-01 -4.82951503E-01
 -4.72678909E-01 -4.44397033E-01 -4.16583783E-01 -4.00745328E-01 -3.75810369E-01
 -3.63785900E-01 -3.06321409E-01 -2.98582765E-01 -2.81367499E-01 -3.21083067E-02
 -8.04351552E-03  5.29504150E-03  6.72484149E-03  2.18369547E-02  2.82839427E-02
  3.83173303E-02  4.04011412E-02  6.33508574E-02  6.42177667E-02  7.24853560E-02
  8.25490706E-02  8.64685792E-02  9.88028110E-02  1.10659363E-01  1.15253879E-01
  1.18309323E-01  1.21150079E-01  1.27420429E-01  1.29573989E-01  1.34962448E-01
  1.41751530E-01  1.50107332E-01  1.55095607E-01  1.58090717E-01  1.61507839E-01
  1.71179292E-01  1.84099286E-01  1.89938906E-01  2.11941997E-01  2.19306647E-01
  2.26495942E-01  2.44919442E-01  2.60482205E-01  2.68928789E-01  2.91691452E-01
  3.40661535E-01  3.54031194E-01  3.91597311E-01  4.25207308E-01  4.30156267E-01
  4.47134172E-01  4.56677743E-01  4.78449883E-01  4.87545513E-01  4.94458005E-01
  5.14753589E-01  5.25645546E-01  5.66109080E-01  5.86517173E-01  5.98550904E-01
  6.23862461E-01  6.36631562E-01  6.48009500E-01  6.56300581E-01  6.59761225E-01
  6.80612101E-01  7.04103517E-01  7.30352794E-01  7.35366687E-01  7.86159510E-01
  8.17293008E-01  8.27944303E-01  8.63175402E-01  8.91356874E-01  9.03262312E-01
  9.43471937E-01  9.58877141E-01  1.00510247E+00  1.03064562E+00  1.06278994E+00
  1.08387294E+00  1.12640999E+00  1.17467141E+00  1.19792461E+00  1.29112648E+00
  1.38873522E+00  1.41206377E+00  1.44544181E+00  1.45867229E+00  1.50454436E+00
  1.53144048E+00  1.56134937E+00  1.58162241E+00  1.59336630E+00  1.62168269E+00
  1.66359495E+00  1.68268403E+00  1.69532595E+00  1.72106553E+00  1.76878216E+00
  1.78288402E+00  1.86134078E+00  1.87127081E+00  1.92816115E+00  1.98140921E+00
  2.00465380E+00  2.06878064E+00  2.11029233E+00  2.16327281E+00  2.17270308E+00
  2.19162372E+00  2.24074248E+00  2.29648015E+00  2.30857490E+00  2.35598221E+00
  2.37480722E+00  2.43593742E+00  2.45111980E+00  2.48600614E+00  2.52130458E+00
  2.55820944E+00  2.57332667E+00  2.58252384E+00  2.61700599E+00  2.64327439E+00
  2.72791877E+00  2.73272907E+00  2.74345628E+00  2.76843884E+00  2.84860661E+00
  2.86177830E+00  2.92974487E+00  3.06642870E+00  3.08138720E+00  3.18298363E+00
  3.39902184E+00  3.50601588E+00  3.62332739E+00  3.79050372E+00  3.79918725E+00
  3.94445053E+00  4.10484373E+00  4.26177675E+00  9.75603476E+00  2.36753123E+01
  2.37786347E+01  2.39442344E+01  2.42562662E+01  2.59305572E+01  2.59742018E+01
  2.64457797E+01  2.15745893E+02
Alpha MO coefficients                      R   N=       27889
  1.80901715E-07 -3.86692541E-07  2.65644719E-06 -2.13182336E-06  1.30154727E-06
  4.12717742E-07 -1.95156982E-05  1.51423562E-05 -1.00773371E-05  1.41866375E-05
 -3.67446404E-05  2.97633243E-05 -2.30004975E-05 -1.67132854E-03  1.49693758E-04
  5.06079673E-04 -3.71913193E-05  7.79610002E-06 -3.00025746E-06  4.69881177E-06
  1.29769627E-05 -3.48870191E-07  1.45329448E-06 -2.99592735E-06 -1.22125869E-05
 -1.19385450E-05 -5.23671008E-06 -1.60796396E-05  1.40853146E-05  1.93317504E-05
  1.83587903E-05  1.73407477E-04 -1.27847821E-04 -1.21751788E-04  6.38508986E-06
  3.73296452E-03  4.78316508E-04  4.59028922E-04 -8.28252409E-04  9.11803523E-06
 -1.57868137E-06 -3.25351005E-06 -2.54164774E-06 -7.91945874E-06 -5.23984851E-07
  1.54690290E-06 -4.07231184E-06 -2.55869538E-06  4.29005847E-06 -6.83266208E-06
  2.42239920E-05  9.75278256E-06 -2.67538451E-05  2.29724210E-05 -1.05230006E-05
 -1.15562534E-05  5.90871927E-05 -1.08285502E-03  1.22055473E-03 -3.86959328E-04
  1.10086515E-04  6.85329375E-06  6.34114419E-06  5.87599635E-06  9.32787287E-07
  4.17566308E-06  3.91598375E-07 -1.14438079E-06  1.76287259E-06  6.70828351E-07
 -7.41315499E-07  1.10238572E-05 -8.55153119E-06 -2.54857072E-06  5.39270090E-07
 -5.74855713E-05  8.52074108E-05 -1.97427800E-05 -5.56384179E-05 -1.71428398E-03
  3.46769843E-04 -1.82763977E-04  1.26810812E-04 -4.16499287E-06 -2.18236283E-06
  3.54894159E-06 -1.91630047E-06  1.78946123E-06 -3.16525673E-06  3.02291203E-05
  5.55276700E-05  4.30515514E-05 -6.51310975E-06 -1.33703458E-07 -5.54558650E-06
  1.23773734E-05 -8.30397243E-05  7.85777573E-05  2.24496548E-04 -7.98555455E-06
  1.30949602E-05  1.09679725E-05  2.11418772E-06 -1.96130742E-05 -4.69414165E-05
 -1.24185954E-04  9.97543993E-07 -3.46415458E-07 -1.34435706E-06  5.62232548E-06
 -3.79847032E-05  6.35509689E-05  1.50480737E-04  1.09069439E-05  2.05658501E-06
 -1.44667606E-05 -9.48367294E-07 -5.99514933E-05 -1.18014311E-04  1.20468245E-04
  6.61363629E-06  2.10967558E-06  1.56823246E-05  1.01083539E-05 -6.48150544E-05
 -1.85039537E-05  7.85519643E-05  4.56248913E-06  1.24574555E-05 -1.56449814E-05
 -7.83796642E-06  3.90885364E-05 -1.37305362E-04 -3.08671548E-04 -4.64764506E-07
 -5.10787755E-06  6.43599718E-07  4.11609657E-01  6.54076179E-01  1.50039397E-02