(R)-3-chloro-1-butene tau=120                                           
SP        RB3LYP                                                      6-311++G(d,p)       
Number of atoms                            I               12
Info1-9                                    I   N=           9
          26          26           0           0           0         110
           1          18        -502
Full Title                                 C   N=           3
(R)-3-chloro-1-butene tau=120       
Route                                      C   N=           7
#P B3LYP/6-311++G** scf(conver=11) int=ultrafine polar=optro
t cphf(rdfreq,conver=11)
Charge                                     I                0
Multiplicity                               I                1
Number of electrons                        I               48
Number of alpha electrons                  I               24
Number of beta electrons                   I               24
Number of basis functions                  I              167
Number of independent functions            I              167
Number of point charges in /Mol/           I                0
Number of translation vectors              I                0
Atomic numbers                             I   N=          12
           6           6           6           6           1           1
           1           1           1           1           1          17
Nuclear charges                            R   N=          12
  6.00000000E+00  6.00000000E+00  6.00000000E+00  6.00000000E+00  1.00000000E+00
  1.00000000E+00  1.00000000E+00  1.00000000E+00  1.00000000E+00  1.00000000E+00
  1.00000000E+00  1.70000000E+01
Current cartesian coordinates              R   N=          36
  8.43816445E-01  3.22893570E+00  5.17063340E-02  1.58415629E-02  5.90998811E-01
 -6.56630553E-01 -2.21966315E+00 -1.78881497E-01  8.44388039E-01 -4.32145534E+00
 -9.27889478E-01 -2.90425424E-01 -4.38723939E+00 -1.10923217E+00 -2.33685432E+00
  2.57525085E+00  3.77652179E+00 -9.27837455E-01 -6.03291159E+00 -1.38784347E+00
  7.42628323E-01 -2.07341552E+00  7.25316082E-03  2.88669293E+00 -3.47255807E-01
  3.90963095E-01 -2.67461021E+00  1.18971051E+00  3.32027575E+00  2.08721660E+00
 -6.48247226E-01  4.58037310E+00 -4.16775226E-01  2.57722771E+00 -1.52101720E+00
  5.56064108E-02
Number of symbols in /Mol/                 I                0
Force Field                                I                0
Atom Types                                 C   N=          12
                                                            
                                                            
                        
Int Atom Types                             I   N=          12
           0           0           0           0           0           0
           0           0           0           0           0           0
MM charges                                 R   N=          12
  0.00000000E+00  0.00000000E+00  0.00000000E+00  0.00000000E+00  0.00000000E+00
  0.00000000E+00  0.00000000E+00  0.00000000E+00  0.00000000E+00  0.00000000E+00
  0.00000000E+00  0.00000000E+00
Integer atomic weights                     I   N=          12
          12          12          12          12           1           1
           1           1           1           1           1          35
Real atomic weights                        R   N=          12
  1.20000000E+01  1.20000000E+01  1.20000000E+01  1.20000000E+01  1.00782504E+00
  1.00782504E+00  1.00782504E+00  1.00782504E+00  1.00782504E+00  1.00782504E+00
  1.00782504E+00  3.49688527E+01
Atom fragment info                         I   N=          12
           0           0           0           0           0           0
           0           0           0           0           0           0
Atom residue num                           I   N=          12
           0           0           0           0           0           0
           0           0           0           0           0           0
Nuclear spins                              I   N=          12
           0           0           0           0           1           1
           1           1           1           1           1           3
Nuclear ZEff                               R   N=          12
 -3.60000000E+00 -3.60000000E+00 -3.60000000E+00 -3.60000000E+00 -1.00000000E+00
 -1.00000000E+00 -1.00000000E+00 -1.00000000E+00 -1.00000000E+00 -1.00000000E+00
 -1.00000000E+00 -1.42400000E+01
Nuclear ZNuc                               R   N=          12
  6.00000000E+00  6.00000000E+00  6.00000000E+00  6.00000000E+00  1.00000000E+00
  1.00000000E+00  1.00000000E+00  1.00000000E+00  1.00000000E+00  1.00000000E+00
  1.00000000E+00  1.70000000E+01
Nuclear QMom                               R   N=          12
  0.00000000E+00  0.00000000E+00  0.00000000E+00  0.00000000E+00  0.00000000E+00
  0.00000000E+00  0.00000000E+00  0.00000000E+00  0.00000000E+00  0.00000000E+00
  0.00000000E+00 -8.16500000E+00
Nuclear GFac                               R   N=          12
  0.00000000E+00  0.00000000E+00  0.00000000E+00  0.00000000E+00  2.79284600E+00
  2.79284600E+00  2.79284600E+00  2.79284600E+00  2.79284600E+00  2.79284600E+00
  2.79284600E+00  8.21874000E-01
MicOpt                                     I   N=          12
          -1          -1          -1          -1          -1          -1
          -1          -1          -1          -1          -1          -1
Number of residues                         I                0
Number of secondary structures             I                0
SymInf integers                            I   N=          26
           1           1           1           1           1           0
           0           0           0           0           0           0
           0           0           0           0           0           0
           0           0           0           0           0           0
           0           0
RotTr to input orientation                 R   N=          12
  9.99987787E-01 -4.94192816E-03  5.40213852E-05  4.94115373E-03  9.99939031E-01
  9.87515978E-03 -1.02820422E-04 -9.87477224E-03  9.99951238E-01  1.79639098E-03
 -2.22358641E-03  4.29626874E-04
Number of contracted shells                I               72
Number of primitive shells                 I              126
Pure/Cartesian d shells                    I                0
Pure/Cartesian f shells                    I                0
Highest angular momentum                   I                2
Largest degree of contraction              I                6
Shell types                                I   N=          72
           0          -1          -1          -1          -1          -2
           0          -1          -1          -1          -1          -2
           0          -1          -1          -1          -1          -2
           0          -1          -1          -1          -1          -2
           0           0           0           0           1           0
           0           0           0           1           0           0
           0           0           1           0           0           0
           0           1           0           0           0           0
           1           0           0           0           0           1
           0           0           0           0           1           0
           0           0           0           0           0          -1
           1           1           1           1           1          -2
Number of primitives per shell             I   N=          72
           6           3           1           1           1           1
           6           3           1           1           1           1
           6           3           1           1           1           1
           6           3           1           1           1           1
           3           1           1           1           1           3
           1           1           1           1           3           1
           1           1           1           3           1           1
           1           1           3           1           1           1
           1           3           1           1           1           1
           3           1           1           1           1           6
           3           1           1           1           1           1
           5           2           1           1           1           1
Shell to atom map                          I   N=          72
           1           1           1           1           1           1
           2           2           2           2           2           2
           3           3           3           3           3           3
           4           4           4           4           4           4
           5           5           5           5           5           6
           6           6           6           6           7           7
           7           7           7           8           8           8
           8           8           9           9           9           9
           9          10          10          10          10          10
          11          11          11          11          11          12
          12          12          12          12          12          12
          12          12          12          12          12          12
Primitive exponents                        R   N=         126
  4.56324000E+03  6.82024000E+02  1.54973000E+02  4.44553000E+01  1.30290000E+01
  1.82773000E+00  2.09642000E+01  4.80331000E+00  1.45933000E+00  4.83456000E-01
  1.45585000E-01  4.38000000E-02  6.26000000E-01  4.56324000E+03  6.82024000E+02
  1.54973000E+02  4.44553000E+01  1.30290000E+01  1.82773000E+00  2.09642000E+01
  4.80331000E+00  1.45933000E+00  4.83456000E-01  1.45585000E-01  4.38000000E-02
  6.26000000E-01  4.56324000E+03  6.82024000E+02  1.54973000E+02  4.44553000E+01
  1.30290000E+01  1.82773000E+00  2.09642000E+01  4.80331000E+00  1.45933000E+00
  4.83456000E-01  1.45585000E-01  4.38000000E-02  6.26000000E-01  4.56324000E+03
  6.82024000E+02  1.54973000E+02  4.44553000E+01  1.30290000E+01  1.82773000E+00
  2.09642000E+01  4.80331000E+00  1.45933000E+00  4.83456000E-01  1.45585000E-01
  4.38000000E-02  6.26000000E-01  3.38650000E+01  5.09479000E+00  1.15879000E+00
  3.25840000E-01  1.02741000E-01  3.60000000E-02  7.50000000E-01  3.38650000E+01
  5.09479000E+00  1.15879000E+00  3.25840000E-01  1.02741000E-01  3.60000000E-02
  7.50000000E-01  3.38650000E+01  5.09479000E+00  1.15879000E+00  3.25840000E-01
  1.02741000E-01  3.60000000E-02  7.50000000E-01  3.38650000E+01  5.09479000E+00
  1.15879000E+00  3.25840000E-01  1.02741000E-01  3.60000000E-02  7.50000000E-01
  3.38650000E+01  5.09479000E+00  1.15879000E+00  3.25840000E-01  1.02741000E-01
  3.60000000E-02  7.50000000E-01  3.38650000E+01  5.09479000E+00  1.15879000E+00
  3.25840000E-01  1.02741000E-01  3.60000000E-02  7.50000000E-01  3.38650000E+01
  5.09479000E+00  1.15879000E+00  3.25840000E-01  1.02741000E-01  3.60000000E-02
  7.50000000E-01  1.05819000E+05  1.58720000E+04  3.61965000E+03  1.03080000E+03
  3.39908000E+02  1.24538000E+02  1.24538000E+02  4.95135000E+01  2.08056000E+01
  6.58346000E+00  2.56468000E+00  5.59763000E-01  1.83273000E-01  4.83000000E-02
  5.89776000E+02  1.39849000E+02  4.51413000E+01  1.68733000E+01  2.77152000E+00
  6.74110000E+00  2.77152000E+00  1.02387000E+00  3.81368000E-01  1.09437000E-01
  7.50000000E-01
Contraction coefficients                   R   N=         126
  1.96665025E-03  1.52306019E-02  7.61269097E-02  2.60801033E-01  6.16462078E-01
  2.21006028E-01  1.14660081E-01  9.19999648E-01 -3.03068213E-03  1.00000000E+00
  1.00000000E+00  1.00000000E+00  1.00000000E+00  1.96665025E-03  1.52306019E-02
  7.61269097E-02  2.60801033E-01  6.16462078E-01  2.21006028E-01  1.14660081E-01
  9.19999648E-01 -3.03068213E-03  1.00000000E+00  1.00000000E+00  1.00000000E+00
  1.00000000E+00  1.96665025E-03  1.52306019E-02  7.61269097E-02  2.60801033E-01
  6.16462078E-01  2.21006028E-01  1.14660081E-01  9.19999648E-01 -3.03068213E-03
  1.00000000E+00  1.00000000E+00  1.00000000E+00  1.00000000E+00  1.96665025E-03
  1.52306019E-02  7.61269097E-02  2.60801033E-01  6.16462078E-01  2.21006028E-01
  1.14660081E-01  9.19999648E-01 -3.03068213E-03  1.00000000E+00  1.00000000E+00
  1.00000000E+00  1.00000000E+00  2.54938145E-02  1.90373109E-01  8.52161486E-01
  1.00000000E+00  1.00000000E+00  1.00000000E+00  1.00000000E+00  2.54938145E-02
  1.90373109E-01  8.52161486E-01  1.00000000E+00  1.00000000E+00  1.00000000E+00
  1.00000000E+00  2.54938145E-02  1.90373109E-01  8.52161486E-01  1.00000000E+00
  1.00000000E+00  1.00000000E+00  1.00000000E+00  2.54938145E-02  1.90373109E-01
  8.52161486E-01  1.00000000E+00  1.00000000E+00  1.00000000E+00  1.00000000E+00
  2.54938145E-02  1.90373109E-01  8.52161486E-01  1.00000000E+00  1.00000000E+00
  1.00000000E+00  1.00000000E+00  2.54938145E-02  1.90373109E-01  8.52161486E-01
  1.00000000E+00  1.00000000E+00  1.00000000E+00  1.00000000E+00  2.54938145E-02
  1.90373109E-01  8.52161486E-01  1.00000000E+00  1.00000000E+00  1.00000000E+00
  1.00000000E+00  7.38000247E-04  5.71800191E-03  2.94950099E-02  1.17286039E-01
  3.62949121E-01  5.84149195E-01  1.34176973E-01  6.24249876E-01  2.91755942E-01
  1.00000000E+00  1.00000000E+00  1.00000000E+00  1.00000000E+00  1.00000000E+00
  3.66556935E-03  2.83679194E-02  1.24756603E-01  3.39654631E-01  7.47585963E-01
 -1.57224381E+00  9.92388882E-01  1.00000000E+00  1.00000000E+00  1.00000000E+00
  1.00000000E+00
P(S=P) Contraction coefficients            R   N=         126
  0.00000000E+00  0.00000000E+00  0.00000000E+00  0.00000000E+00  0.00000000E+00
  0.00000000E+00  4.02486927E-02  2.37593957E-01  8.15853851E-01  1.00000000E+00
  1.00000000E+00  1.00000000E+00  0.00000000E+00  0.00000000E+00  0.00000000E+00
  0.00000000E+00  0.00000000E+00  0.00000000E+00  0.00000000E+00  4.02486927E-02
  2.37593957E-01  8.15853851E-01  1.00000000E+00  1.00000000E+00  1.00000000E+00
  0.00000000E+00  0.00000000E+00  0.00000000E+00  0.00000000E+00  0.00000000E+00
  0.00000000E+00  0.00000000E+00  4.02486927E-02  2.37593957E-01  8.15853851E-01
  1.00000000E+00  1.00000000E+00  1.00000000E+00  0.00000000E+00  0.00000000E+00
  0.00000000E+00  0.00000000E+00  0.00000000E+00  0.00000000E+00  0.00000000E+00
  4.02486927E-02  2.37593957E-01  8.15853851E-01  1.00000000E+00  1.00000000E+00
  1.00000000E+00  0.00000000E+00  0.00000000E+00  0.00000000E+00  0.00000000E+00
  0.00000000E+00  0.00000000E+00  0.00000000E+00  0.00000000E+00  0.00000000E+00
  0.00000000E+00  0.00000000E+00  0.00000000E+00  0.00000000E+00  0.00000000E+00
  0.00000000E+00  0.00000000E+00  0.00000000E+00  0.00000000E+00  0.00000000E+00
  0.00000000E+00  0.00000000E+00  0.00000000E+00  0.00000000E+00  0.00000000E+00
  0.00000000E+00  0.00000000E+00  0.00000000E+00  0.00000000E+00  0.00000000E+00
  0.00000000E+00  0.00000000E+00  0.00000000E+00  0.00000000E+00  0.00000000E+00
  0.00000000E+00  0.00000000E+00  0.00000000E+00  0.00000000E+00  0.00000000E+00
  0.00000000E+00  0.00000000E+00  0.00000000E+00  0.00000000E+00  0.00000000E+00
  0.00000000E+00  0.00000000E+00  0.00000000E+00  0.00000000E+00  0.00000000E+00
  0.00000000E+00  0.00000000E+00  0.00000000E+00  0.00000000E+00  0.00000000E+00
  0.00000000E+00  0.00000000E+00  0.00000000E+00  0.00000000E+00  0.00000000E+00
  0.00000000E+00  0.00000000E+00  0.00000000E+00  0.00000000E+00  1.00000000E+00
  0.00000000E+00  0.00000000E+00  0.00000000E+00  0.00000000E+00  0.00000000E+00
  0.00000000E+00  0.00000000E+00  0.00000000E+00  0.00000000E+00  0.00000000E+00
  0.00000000E+00
Coordinates of each shell                  R   N=         216
  8.43816445E-01  3.22893570E+00  5.17063340E-02  8.43816445E-01  3.22893570E+00
  5.17063340E-02  8.43816445E-01  3.22893570E+00  5.17063340E-02  8.43816445E-01
  3.22893570E+00  5.17063340E-02  8.43816445E-01  3.22893570E+00  5.17063340E-02
  8.43816445E-01  3.22893570E+00  5.17063340E-02  1.58415629E-02  5.90998811E-01
 -6.56630553E-01  1.58415629E-02  5.90998811E-01 -6.56630553E-01  1.58415629E-02
  5.90998811E-01 -6.56630553E-01  1.58415629E-02  5.90998811E-01 -6.56630553E-01
  1.58415629E-02  5.90998811E-01 -6.56630553E-01  1.58415629E-02  5.90998811E-01
 -6.56630553E-01 -2.21966315E+00 -1.78881497E-01  8.44388039E-01 -2.21966315E+00
 -1.78881497E-01  8.44388039E-01 -2.21966315E+00 -1.78881497E-01  8.44388039E-01
 -2.21966315E+00 -1.78881497E-01  8.44388039E-01 -2.21966315E+00 -1.78881497E-01
  8.44388039E-01 -2.21966315E+00 -1.78881497E-01  8.44388039E-01 -4.32145534E+00
 -9.27889478E-01 -2.90425424E-01 -4.32145534E+00 -9.27889478E-01 -2.90425424E-01
 -4.32145534E+00 -9.27889478E-01 -2.90425424E-01 -4.32145534E+00 -9.27889478E-01
 -2.90425424E-01 -4.32145534E+00 -9.27889478E-01 -2.90425424E-01 -4.32145534E+00
 -9.27889478E-01 -2.90425424E-01 -4.38723939E+00 -1.10923217E+00 -2.33685432E+00
 -4.38723939E+00 -1.10923217E+00 -2.33685432E+00 -4.38723939E+00 -1.10923217E+00
 -2.33685432E+00 -4.38723939E+00 -1.10923217E+00 -2.33685432E+00 -4.38723939E+00
 -1.10923217E+00 -2.33685432E+00  2.57525085E+00  3.77652179E+00 -9.27837455E-01
  2.57525085E+00  3.77652179E+00 -9.27837455E-01  2.57525085E+00  3.77652179E+00
 -9.27837455E-01  2.57525085E+00  3.77652179E+00 -9.27837455E-01  2.57525085E+00
  3.77652179E+00 -9.27837455E-01 -6.03291159E+00 -1.38784347E+00  7.42628323E-01
 -6.03291159E+00 -1.38784347E+00  7.42628323E-01 -6.03291159E+00 -1.38784347E+00
  7.42628323E-01 -6.03291159E+00 -1.38784347E+00  7.42628323E-01 -6.03291159E+00
 -1.38784347E+00  7.42628323E-01 -2.07341552E+00  7.25316082E-03  2.88669293E+00
 -2.07341552E+00  7.25316082E-03  2.88669293E+00 -2.07341552E+00  7.25316082E-03
  2.88669293E+00 -2.07341552E+00  7.25316082E-03  2.88669293E+00 -2.07341552E+00
  7.25316082E-03  2.88669293E+00 -3.47255807E-01  3.90963095E-01 -2.67461021E+00
 -3.47255807E-01  3.90963095E-01 -2.67461021E+00 -3.47255807E-01  3.90963095E-01
 -2.67461021E+00 -3.47255807E-01  3.90963095E-01 -2.67461021E+00 -3.47255807E-01
  3.90963095E-01 -2.67461021E+00  1.18971051E+00  3.32027575E+00  2.08721660E+00
  1.18971051E+00  3.32027575E+00  2.08721660E+00  1.18971051E+00  3.32027575E+00
  2.08721660E+00  1.18971051E+00  3.32027575E+00  2.08721660E+00  1.18971051E+00
  3.32027575E+00  2.08721660E+00 -6.48247226E-01  4.58037310E+00 -4.16775226E-01
 -6.48247226E-01  4.58037310E+00 -4.16775226E-01 -6.48247226E-01  4.58037310E+00
 -4.16775226E-01 -6.48247226E-01  4.58037310E+00 -4.16775226E-01 -6.48247226E-01
  4.58037310E+00 -4.16775226E-01  2.57722771E+00 -1.52101720E+00  5.56064108E-02
  2.57722771E+00 -1.52101720E+00  5.56064108E-02  2.57722771E+00 -1.52101720E+00
  5.56064108E-02  2.57722771E+00 -1.52101720E+00  5.56064108E-02  2.57722771E+00
 -1.52101720E+00  5.56064108E-02  2.57722771E+00 -1.52101720E+00  5.56064108E-02
  2.57722771E+00 -1.52101720E+00  5.56064108E-02  2.57722771E+00 -1.52101720E+00
  5.56064108E-02  2.57722771E+00 -1.52101720E+00  5.56064108E-02  2.57722771E+00
 -1.52101720E+00  5.56064108E-02  2.57722771E+00 -1.52101720E+00  5.56064108E-02
  2.57722771E+00 -1.52101720E+00  5.56064108E-02  2.57722771E+00 -1.52101720E+00
  5.56064108E-02
Constraint Structure                       R   N=          36
  8.43816445E-01  3.22893570E+00  5.17063340E-02  1.58415629E-02  5.90998811E-01
 -6.56630553E-01 -2.21966315E+00 -1.78881497E-01  8.44388039E-01 -4.32145534E+00
 -9.27889478E-01 -2.90425424E-01 -4.38723939E+00 -1.10923217E+00 -2.33685432E+00
  2.57525085E+00  3.77652179E+00 -9.27837455E-01 -6.03291159E+00 -1.38784347E+00
  7.42628323E-01 -2.07341552E+00  7.25316082E-03  2.88669293E+00 -3.47255807E-01
  3.90963095E-01 -2.67461021E+00  1.18971051E+00  3.32027575E+00  2.08721660E+00
 -6.48247226E-01  4.58037310E+00 -4.16775226E-01  2.57722771E+00 -1.52101720E+00
  5.56064108E-02
Num ILSW                                   I              100
ILSW                                       I   N=         100
           0           0           0           0           2           0
           0           0           0           0         402          -1
           5           0           0           0           0           0
           0           0           0           0           0           0
           1           0           0           0           0           0
           0           0      100000           0          -1           0
           0           0           0           0           0           0
           0           0           0           1           0           0
           0           0           1           0           0           0
           0           0           4          41           0           0
           0           0           5           0           0           0
           0           0           0           0           0           0
           0           0           0           0           0           0
           0           0           0           0           0           0
           0           0           0           0           0           0
           0           0           0           0           0           0
           0           0           0           0
Num RLSW                                   I               41
RLSW                                       R   N=          41
  8.00000000E-01  7.20000000E-01  1.00000000E+00  8.10000000E-01  2.00000000E-01
  0.00000000E+00  0.00000000E+00  1.00000000E+00  0.00000000E+00  0.00000000E+00
  0.00000000E+00  0.00000000E+00  1.00000000E+00  0.00000000E+00  0.00000000E+00
  0.00000000E+00  0.00000000E+00  1.00000000E+00  0.00000000E+00  0.00000000E+00
  0.00000000E+00  0.00000000E+00  1.00000000E+00  0.00000000E+00  0.00000000E+00
  0.00000000E+00  0.00000000E+00  1.00000000E+00  0.00000000E+00  0.00000000E+00
  0.00000000E+00  0.00000000E+00  0.00000000E+00  0.00000000E+00  0.00000000E+00
  0.00000000E+00  0.00000000E+00  0.00000000E+00  1.00000000E+00  1.00000000E+00
  0.00000000E+00
MxBond                                     I                4
NBond                                      I   N=          12
           4           4           3           3           1           1
           1           1           1           1           1           1
IBond                                      I   N=          48
           2           6          10          11           1           3
           9          12           2           4           8           0
           3           5           7           0           4           0
           0           0           1           0           0           0
           4           0           0           0           3           0
           0           0           2           0           0           0
           1           0           0           0           1           0
           0           0           2           0           0           0
RBond                                      R   N=          48
  1.00000000E+00  1.00000000E+00  1.00000000E+00  1.00000000E+00  1.00000000E+00
  1.00000000E+00  1.00000000E+00  1.00000000E+00  1.00000000E+00  2.00000000E+00
  1.00000000E+00  0.00000000E+00  2.00000000E+00  1.00000000E+00  1.00000000E+00
  0.00000000E+00  1.00000000E+00  0.00000000E+00  0.00000000E+00  0.00000000E+00
  1.00000000E+00  0.00000000E+00  0.00000000E+00  0.00000000E+00  1.00000000E+00
  0.00000000E+00  0.00000000E+00  0.00000000E+00  1.00000000E+00  0.00000000E+00
  0.00000000E+00  0.00000000E+00  1.00000000E+00  0.00000000E+00  0.00000000E+00
  0.00000000E+00  1.00000000E+00  0.00000000E+00  0.00000000E+00  0.00000000E+00
  1.00000000E+00  0.00000000E+00  0.00000000E+00  0.00000000E+00  1.00000000E+00
  0.00000000E+00  0.00000000E+00  0.00000000E+00
Virial Ratio                               R      2.002811907775800E+00
SCF Energy                                 R     -6.168931754613193E+02
Total Energy                               R     -6.168931754613193E+02
RMS Density                                R      6.213018689326110E-12
Nuclear derivative order                   I                0
External E-field                           R   N=          35
  0.00000000E+00  0.00000000E+00  0.00000000E+00  0.00000000E+00  0.00000000E+00
  0.00000000E+00  0.00000000E+00  0.00000000E+00  0.00000000E+00  0.00000000E+00
  0.00000000E+00  0.00000000E+00  0.00000000E+00  0.00000000E+00  0.00000000E+00
  0.00000000E+00  0.00000000E+00  0.00000000E+00  0.00000000E+00  0.00000000E+00
  0.00000000E+00  0.00000000E+00  0.00000000E+00  0.00000000E+00  0.00000000E+00
  0.00000000E+00  0.00000000E+00  0.00000000E+00  0.00000000E+00  0.00000000E+00
  0.00000000E+00  0.00000000E+00  0.00000000E+00  0.00000000E+00  0.00000000E+00
IOpCl                                      I                0
IROHF                                      I                0
Alpha Orbital Energies                     R   N=         167
 -1.01535051E+02 -1.02412434E+01 -1.01904658E+01 -1.01808050E+01 -1.01779783E+01
 -9.45048712E+00 -7.21471315E+00 -7.20535054E+00 -7.20513775E+00 -8.80654576E-01
 -7.89977597E-01 -7.40611996E-01 -6.35944179E-01 -5.80371088E-01 -4.88732094E-01
 -4.76083667E-01 -4.46862689E-01 -4.18181539E-01 -4.00899417E-01 -3.80120469E-01
 -3.66620549E-01 -3.06856019E-01 -2.98728466E-01 -2.79337553E-01 -2.45424822E-02
 -7.04691822E-03  6.15819358E-03  7.92240694E-03  2.67138133E-02  3.03264988E-02
  3.92504610E-02  4.24052225E-02  6.44535513E-02  6.53908931E-02  7.42990246E-02
  8.26683834E-02  8.82215430E-02  1.01609644E-01  1.11193992E-01  1.15349339E-01
  1.18052029E-01  1.22234782E-01  1.28430710E-01  1.31601796E-01  1.38055110E-01
  1.44282911E-01  1.51731805E-01  1.57578287E-01  1.61284710E-01  1.66833140E-01
  1.72718134E-01  1.90056313E-01  1.93189093E-01  2.17065021E-01  2.21328265E-01
  2.27437227E-01  2.44186435E-01  2.60235060E-01  2.73706054E-01  2.97876966E-01
  3.43688338E-01  3.54640011E-01  3.91241068E-01  4.27981283E-01  4.32283614E-01
  4.48836753E-01  4.54962222E-01  4.79518428E-01  4.85897530E-01  4.95307743E-01
  5.23232863E-01  5.31364899E-01  5.73616120E-01  5.88688354E-01  5.98507748E-01
  6.27249239E-01  6.38345189E-01  6.46661695E-01  6.61922286E-01  6.66319127E-01
  6.91403358E-01  7.04377850E-01  7.31537226E-01  7.46619290E-01  7.76500735E-01
  8.14308701E-01  8.35181752E-01  8.60482200E-01  8.91111482E-01  9.17194132E-01
  9.45911096E-01  9.65779426E-01  9.98273893E-01  1.04233148E+00  1.06519813E+00
  1.09019019E+00  1.13470342E+00  1.19400841E+00  1.21606802E+00  1.30006296E+00
  1.39873655E+00  1.43068173E+00  1.45573407E+00  1.47193627E+00  1.52300360E+00
  1.55100346E+00  1.55884416E+00  1.58425222E+00  1.60496658E+00  1.63864142E+00
  1.67139645E+00  1.69901516E+00  1.72366977E+00  1.73114303E+00  1.77089048E+00
  1.79314246E+00  1.88816714E+00  1.89505254E+00  1.93878236E+00  1.99536206E+00
  2.02607751E+00  2.07891416E+00  2.11587034E+00  2.18774143E+00  2.19700087E+00
  2.20535874E+00  2.26290085E+00  2.30544270E+00  2.30594262E+00  2.36708741E+00
  2.38794193E+00  2.45986639E+00  2.47046982E+00  2.49565464E+00  2.53178657E+00
  2.57428099E+00  2.57683811E+00  2.59720889E+00  2.60589104E+00  2.65902131E+00
  2.73641120E+00  2.74086993E+00  2.74927506E+00  2.79054698E+00  2.86341223E+00
  2.86710934E+00  2.94619808E+00  3.09217593E+00  3.11749198E+00  3.23000112E+00
  3.42914266E+00  3.51597098E+00  3.72258203E+00  3.79766698E+00  3.80561849E+00
  3.96133287E+00  4.14461709E+00  4.29520690E+00  9.77348893E+00  2.37209474E+01
  2.38174616E+01  2.39527380E+01  2.42802262E+01  2.59405905E+01  2.59856347E+01
  2.64781330E+01  2.15765298E+02
Alpha MO coefficients                      R   N=       27889
  4.90992331E-09  6.10902806E-08 -3.53374365E-06 -1.70265221E-06 -1.08038933E-06
 -2.70457759E-06  2.04994131E-05  1.68674454E-05  8.84299013E-06  7.05588034E-06
  4.60099622E-05  3.18236487E-05  3.12615483E-05 -1.89288415E-03 -1.88569164E-04
  5.56058890E-04  4.31746033E-05  6.33268776E-06 -2.05258274E-06 -5.92118452E-06
  1.23299167E-05 -3.96757414E-06  1.56752709E-06 -3.14400857E-06  1.72236559E-05
 -1.48226265E-05  7.86383859E-06 -1.08062198E-05 -2.53363356E-05  2.45221447E-05
 -2.79717244E-05  1.91912707E-04  1.25996978E-04 -1.20351716E-04  1.81648847E-05
  4.24086347E-03 -3.84745010E-04  5.03793967E-04  1.06949076E-03  1.63121501E-05
 -5.63973831E-06  7.08137500E-06 -3.84671634E-06  1.60676458E-05 -7.04442962E-07
  1.99744788E-06  4.16627975E-06 -1.53567751E-06 -4.30148633E-06 -7.83514502E-06
 -2.80105490E-05  6.91442811E-06  2.60523722E-05  1.29971309E-06  7.76323921E-07
 -2.01687508E-05 -7.04422574E-05 -1.21011988E-03 -1.31003950E-03 -4.18996814E-04
 -1.52702927E-04  5.96469426E-06  8.09532563E-06 -4.44365461E-06  1.61507278E-06
 -6.92621245E-06  4.20568735E-07 -1.24503884E-06 -1.58917699E-06  8.69476854E-07
  7.43769531E-07  1.28409292E-05  6.87202172E-06 -3.53783695E-06  1.15670518E-06
 -8.38411578E-05 -1.03302194E-04 -1.80251031E-05  6.52432715E-05 -1.85690677E-03
 -3.73003034E-04 -1.85087266E-04 -1.62078692E-04 -4.97418340E-06 -2.12565972E-06
 -4.88996554E-06 -2.35550958E-06 -1.78577769E-06 -3.52359959E-06  3.99816317E-05
  6.05179504E-05  2.26488642E-05  6.08796067E-06  2.61566187E-07  6.96657006E-06
  1.21330553E-05 -8.41025628E-05  6.99744813E-05  2.45364406E-04  6.88679790E-06
  1.37046946E-05 -1.12557194E-05  2.92109237E-06 -2.57553220E-05 -4.85407481E-05
 -1.21989473E-04 -1.56799110E-06 -1.80841645E-07  1.18719111E-06  6.19402569E-06
 -3.34469776E-05  6.91477314E-05  1.92174473E-04 -1.18278216E-05  2.55482278E-06
  1.26022120E-05 -2.79469716E-06 -6.78081273E-05 -9.38800857E-05  2.52313461E-04
 -7.72573068E-06  1.17912305E-06 -2.05536882E-05  1.06347265E-05 -6.84778014E-05
 -4.49119202E-05  7.99299368E-05 -5.59117161E-06  1.33289860E-05  1.52640900E-05
 -8.59490983E-06  3.85899540E-05 -1.44713124E-04 -3.33256955E-04 -5.30200370E-07
 -3.87911028E-06 -1.70419488E-06  4.11609241E-01  6.54075157E-01  1.50096599E-02