(R)-3-chloro-1-butene tau=120                                           
SP        RB3LYP                                                      6-311++G(d,p)       
Number of atoms                            I               12
Info1-9                                    I   N=           9
          26          26           0           0           0         110
           1          18        -502
Full Title                                 C   N=           3
(R)-3-chloro-1-butene tau=120       
Route                                      C   N=           7
#P B3LYP/6-311++G** scf(conver=11) int=ultrafine polar=optro
t cphf(rdfreq,conver=11)
Charge                                     I                0
Multiplicity                               I                1
Number of electrons                        I               48
Number of alpha electrons                  I               24
Number of beta electrons                   I               24
Number of basis functions                  I              167
Number of independent functions            I              167
Number of point charges in /Mol/           I                0
Number of translation vectors              I                0
Atomic numbers                             I   N=          12
           6           6           6           6           1           1
           1           1           1           1           1          17
Nuclear charges                            R   N=          12
  6.00000000E+00  6.00000000E+00  6.00000000E+00  6.00000000E+00  1.00000000E+00
  1.00000000E+00  1.00000000E+00  1.00000000E+00  1.00000000E+00  1.00000000E+00
  1.00000000E+00  1.70000000E+01
Current cartesian coordinates              R   N=          36
  8.89831727E-01  3.31424252E+00  8.64073987E-02  1.66498317E-02  6.60583694E-01
 -6.10555886E-01 -2.27949455E+00 -1.89783346E-01  8.03953598E-01 -4.40549371E+00
 -9.50886945E-01 -3.04091420E-01 -4.57262211E+00 -1.04476055E+00 -2.34655444E+00
  2.52464658E+00  3.82754360E+00 -1.06518354E+00 -6.03456270E+00 -1.50451566E+00
  8.06610866E-01 -2.12772009E+00 -1.20983238E-01  2.85264998E+00 -2.96115521E-01
  4.96853278E-01 -2.63873946E+00  1.13911226E+00  3.44310244E+00  2.13384638E+00
 -5.68209360E-01  4.71438913E+00 -3.70924255E-01  2.62391242E+00 -1.57744497E+00
  4.55301366E-02
Number of symbols in /Mol/                 I                0
Force Field                                I                0
Atom Types                                 C   N=          12
                                                            
                                                            
                        
Int Atom Types                             I   N=          12
           0           0           0           0           0           0
           0           0           0           0           0           0
MM charges                                 R   N=          12
  0.00000000E+00  0.00000000E+00  0.00000000E+00  0.00000000E+00  0.00000000E+00
  0.00000000E+00  0.00000000E+00  0.00000000E+00  0.00000000E+00  0.00000000E+00
  0.00000000E+00  0.00000000E+00
Integer atomic weights                     I   N=          12
          12          12          12          12           1           1
           1           1           1           1           1          35
Real atomic weights                        R   N=          12
  1.20000000E+01  1.20000000E+01  1.20000000E+01  1.20000000E+01  1.00782504E+00
  1.00782504E+00  1.00782504E+00  1.00782504E+00  1.00782504E+00  1.00782504E+00
  1.00782504E+00  3.49688527E+01
Atom fragment info                         I   N=          12
           0           0           0           0           0           0
           0           0           0           0           0           0
Atom residue num                           I   N=          12
           0           0           0           0           0           0
           0           0           0           0           0           0
Nuclear spins                              I   N=          12
           0           0           0           0           1           1
           1           1           1           1           1           3
Nuclear ZEff                               R   N=          12
 -3.60000000E+00 -3.60000000E+00 -3.60000000E+00 -3.60000000E+00 -1.00000000E+00
 -1.00000000E+00 -1.00000000E+00 -1.00000000E+00 -1.00000000E+00 -1.00000000E+00
 -1.00000000E+00 -1.42400000E+01
Nuclear ZNuc                               R   N=          12
  6.00000000E+00  6.00000000E+00  6.00000000E+00  6.00000000E+00  1.00000000E+00
  1.00000000E+00  1.00000000E+00  1.00000000E+00  1.00000000E+00  1.00000000E+00
  1.00000000E+00  1.70000000E+01
Nuclear QMom                               R   N=          12
  0.00000000E+00  0.00000000E+00  0.00000000E+00  0.00000000E+00  0.00000000E+00
  0.00000000E+00  0.00000000E+00  0.00000000E+00  0.00000000E+00  0.00000000E+00
  0.00000000E+00 -8.16500000E+00
Nuclear GFac                               R   N=          12
  0.00000000E+00  0.00000000E+00  0.00000000E+00  0.00000000E+00  2.79284600E+00
  2.79284600E+00  2.79284600E+00  2.79284600E+00  2.79284600E+00  2.79284600E+00
  2.79284600E+00  8.21874000E-01
MicOpt                                     I   N=          12
          -1          -1          -1          -1          -1          -1
          -1          -1          -1          -1          -1          -1
Number of residues                         I                0
Number of secondary structures             I                0
SymInf integers                            I   N=          26
           1           1           1           1           1           0
           0           0           0           0           0           0
           0           0           0           0           0           0
           0           0           0           0           0           0
           0           0
RotTr to input orientation                 R   N=          12
  9.99996462E-01 -2.12380792E-03 -1.60175375E-03  2.12130039E-03  9.99996525E-01
 -1.56557050E-03  1.60507315E-03  1.56216716E-03  9.99997492E-01 -1.38646884E-03
  5.00883722E-04 -5.10430776E-04
Number of contracted shells                I               72
Number of primitive shells                 I              126
Pure/Cartesian d shells                    I                0
Pure/Cartesian f shells                    I                0
Highest angular momentum                   I                2
Largest degree of contraction              I                6
Shell types                                I   N=          72
           0          -1          -1          -1          -1          -2
           0          -1          -1          -1          -1          -2
           0          -1          -1          -1          -1          -2
           0          -1          -1          -1          -1          -2
           0           0           0           0           1           0
           0           0           0           1           0           0
           0           0           1           0           0           0
           0           1           0           0           0           0
           1           0           0           0           0           1
           0           0           0           0           1           0
           0           0           0           0           0          -1
           1           1           1           1           1          -2
Number of primitives per shell             I   N=          72
           6           3           1           1           1           1
           6           3           1           1           1           1
           6           3           1           1           1           1
           6           3           1           1           1           1
           3           1           1           1           1           3
           1           1           1           1           3           1
           1           1           1           3           1           1
           1           1           3           1           1           1
           1           3           1           1           1           1
           3           1           1           1           1           6
           3           1           1           1           1           1
           5           2           1           1           1           1
Shell to atom map                          I   N=          72
           1           1           1           1           1           1
           2           2           2           2           2           2
           3           3           3           3           3           3
           4           4           4           4           4           4
           5           5           5           5           5           6
           6           6           6           6           7           7
           7           7           7           8           8           8
           8           8           9           9           9           9
           9          10          10          10          10          10
          11          11          11          11          11          12
          12          12          12          12          12          12
          12          12          12          12          12          12
Primitive exponents                        R   N=         126
  4.56324000E+03  6.82024000E+02  1.54973000E+02  4.44553000E+01  1.30290000E+01
  1.82773000E+00  2.09642000E+01  4.80331000E+00  1.45933000E+00  4.83456000E-01
  1.45585000E-01  4.38000000E-02  6.26000000E-01  4.56324000E+03  6.82024000E+02
  1.54973000E+02  4.44553000E+01  1.30290000E+01  1.82773000E+00  2.09642000E+01
  4.80331000E+00  1.45933000E+00  4.83456000E-01  1.45585000E-01  4.38000000E-02
  6.26000000E-01  4.56324000E+03  6.82024000E+02  1.54973000E+02  4.44553000E+01
  1.30290000E+01  1.82773000E+00  2.09642000E+01  4.80331000E+00  1.45933000E+00
  4.83456000E-01  1.45585000E-01  4.38000000E-02  6.26000000E-01  4.56324000E+03
  6.82024000E+02  1.54973000E+02  4.44553000E+01  1.30290000E+01  1.82773000E+00
  2.09642000E+01  4.80331000E+00  1.45933000E+00  4.83456000E-01  1.45585000E-01
  4.38000000E-02  6.26000000E-01  3.38650000E+01  5.09479000E+00  1.15879000E+00
  3.25840000E-01  1.02741000E-01  3.60000000E-02  7.50000000E-01  3.38650000E+01
  5.09479000E+00  1.15879000E+00  3.25840000E-01  1.02741000E-01  3.60000000E-02
  7.50000000E-01  3.38650000E+01  5.09479000E+00  1.15879000E+00  3.25840000E-01
  1.02741000E-01  3.60000000E-02  7.50000000E-01  3.38650000E+01  5.09479000E+00
  1.15879000E+00  3.25840000E-01  1.02741000E-01  3.60000000E-02  7.50000000E-01
  3.38650000E+01  5.09479000E+00  1.15879000E+00  3.25840000E-01  1.02741000E-01
  3.60000000E-02  7.50000000E-01  3.38650000E+01  5.09479000E+00  1.15879000E+00
  3.25840000E-01  1.02741000E-01  3.60000000E-02  7.50000000E-01  3.38650000E+01
  5.09479000E+00  1.15879000E+00  3.25840000E-01  1.02741000E-01  3.60000000E-02
  7.50000000E-01  1.05819000E+05  1.58720000E+04  3.61965000E+03  1.03080000E+03
  3.39908000E+02  1.24538000E+02  1.24538000E+02  4.95135000E+01  2.08056000E+01
  6.58346000E+00  2.56468000E+00  5.59763000E-01  1.83273000E-01  4.83000000E-02
  5.89776000E+02  1.39849000E+02  4.51413000E+01  1.68733000E+01  2.77152000E+00
  6.74110000E+00  2.77152000E+00  1.02387000E+00  3.81368000E-01  1.09437000E-01
  7.50000000E-01
Contraction coefficients                   R   N=         126
  1.96665025E-03  1.52306019E-02  7.61269097E-02  2.60801033E-01  6.16462078E-01
  2.21006028E-01  1.14660081E-01  9.19999648E-01 -3.03068213E-03  1.00000000E+00
  1.00000000E+00  1.00000000E+00  1.00000000E+00  1.96665025E-03  1.52306019E-02
  7.61269097E-02  2.60801033E-01  6.16462078E-01  2.21006028E-01  1.14660081E-01
  9.19999648E-01 -3.03068213E-03  1.00000000E+00  1.00000000E+00  1.00000000E+00
  1.00000000E+00  1.96665025E-03  1.52306019E-02  7.61269097E-02  2.60801033E-01
  6.16462078E-01  2.21006028E-01  1.14660081E-01  9.19999648E-01 -3.03068213E-03
  1.00000000E+00  1.00000000E+00  1.00000000E+00  1.00000000E+00  1.96665025E-03
  1.52306019E-02  7.61269097E-02  2.60801033E-01  6.16462078E-01  2.21006028E-01
  1.14660081E-01  9.19999648E-01 -3.03068213E-03  1.00000000E+00  1.00000000E+00
  1.00000000E+00  1.00000000E+00  2.54938145E-02  1.90373109E-01  8.52161486E-01
  1.00000000E+00  1.00000000E+00  1.00000000E+00  1.00000000E+00  2.54938145E-02
  1.90373109E-01  8.52161486E-01  1.00000000E+00  1.00000000E+00  1.00000000E+00
  1.00000000E+00  2.54938145E-02  1.90373109E-01  8.52161486E-01  1.00000000E+00
  1.00000000E+00  1.00000000E+00  1.00000000E+00  2.54938145E-02  1.90373109E-01
  8.52161486E-01  1.00000000E+00  1.00000000E+00  1.00000000E+00  1.00000000E+00
  2.54938145E-02  1.90373109E-01  8.52161486E-01  1.00000000E+00  1.00000000E+00
  1.00000000E+00  1.00000000E+00  2.54938145E-02  1.90373109E-01  8.52161486E-01
  1.00000000E+00  1.00000000E+00  1.00000000E+00  1.00000000E+00  2.54938145E-02
  1.90373109E-01  8.52161486E-01  1.00000000E+00  1.00000000E+00  1.00000000E+00
  1.00000000E+00  7.38000247E-04  5.71800191E-03  2.94950099E-02  1.17286039E-01
  3.62949121E-01  5.84149195E-01  1.34176973E-01  6.24249876E-01  2.91755942E-01
  1.00000000E+00  1.00000000E+00  1.00000000E+00  1.00000000E+00  1.00000000E+00
  3.66556935E-03  2.83679194E-02  1.24756603E-01  3.39654631E-01  7.47585963E-01
 -1.57224381E+00  9.92388882E-01  1.00000000E+00  1.00000000E+00  1.00000000E+00
  1.00000000E+00
P(S=P) Contraction coefficients            R   N=         126
  0.00000000E+00  0.00000000E+00  0.00000000E+00  0.00000000E+00  0.00000000E+00
  0.00000000E+00  4.02486927E-02  2.37593957E-01  8.15853851E-01  1.00000000E+00
  1.00000000E+00  1.00000000E+00  0.00000000E+00  0.00000000E+00  0.00000000E+00
  0.00000000E+00  0.00000000E+00  0.00000000E+00  0.00000000E+00  4.02486927E-02
  2.37593957E-01  8.15853851E-01  1.00000000E+00  1.00000000E+00  1.00000000E+00
  0.00000000E+00  0.00000000E+00  0.00000000E+00  0.00000000E+00  0.00000000E+00
  0.00000000E+00  0.00000000E+00  4.02486927E-02  2.37593957E-01  8.15853851E-01
  1.00000000E+00  1.00000000E+00  1.00000000E+00  0.00000000E+00  0.00000000E+00
  0.00000000E+00  0.00000000E+00  0.00000000E+00  0.00000000E+00  0.00000000E+00
  4.02486927E-02  2.37593957E-01  8.15853851E-01  1.00000000E+00  1.00000000E+00
  1.00000000E+00  0.00000000E+00  0.00000000E+00  0.00000000E+00  0.00000000E+00
  0.00000000E+00  0.00000000E+00  0.00000000E+00  0.00000000E+00  0.00000000E+00
  0.00000000E+00  0.00000000E+00  0.00000000E+00  0.00000000E+00  0.00000000E+00
  0.00000000E+00  0.00000000E+00  0.00000000E+00  0.00000000E+00  0.00000000E+00
  0.00000000E+00  0.00000000E+00  0.00000000E+00  0.00000000E+00  0.00000000E+00
  0.00000000E+00  0.00000000E+00  0.00000000E+00  0.00000000E+00  0.00000000E+00
  0.00000000E+00  0.00000000E+00  0.00000000E+00  0.00000000E+00  0.00000000E+00
  0.00000000E+00  0.00000000E+00  0.00000000E+00  0.00000000E+00  0.00000000E+00
  0.00000000E+00  0.00000000E+00  0.00000000E+00  0.00000000E+00  0.00000000E+00
  0.00000000E+00  0.00000000E+00  0.00000000E+00  0.00000000E+00  0.00000000E+00
  0.00000000E+00  0.00000000E+00  0.00000000E+00  0.00000000E+00  0.00000000E+00
  0.00000000E+00  0.00000000E+00  0.00000000E+00  0.00000000E+00  0.00000000E+00
  0.00000000E+00  0.00000000E+00  0.00000000E+00  0.00000000E+00  1.00000000E+00
  0.00000000E+00  0.00000000E+00  0.00000000E+00  0.00000000E+00  0.00000000E+00
  0.00000000E+00  0.00000000E+00  0.00000000E+00  0.00000000E+00  0.00000000E+00
  0.00000000E+00
Coordinates of each shell                  R   N=         216
  8.89831727E-01  3.31424252E+00  8.64073987E-02  8.89831727E-01  3.31424252E+00
  8.64073987E-02  8.89831727E-01  3.31424252E+00  8.64073987E-02  8.89831727E-01
  3.31424252E+00  8.64073987E-02  8.89831727E-01  3.31424252E+00  8.64073987E-02
  8.89831727E-01  3.31424252E+00  8.64073987E-02  1.66498317E-02  6.60583694E-01
 -6.10555886E-01  1.66498317E-02  6.60583694E-01 -6.10555886E-01  1.66498317E-02
  6.60583694E-01 -6.10555886E-01  1.66498317E-02  6.60583694E-01 -6.10555886E-01
  1.66498317E-02  6.60583694E-01 -6.10555886E-01  1.66498317E-02  6.60583694E-01
 -6.10555886E-01 -2.27949455E+00 -1.89783346E-01  8.03953598E-01 -2.27949455E+00
 -1.89783346E-01  8.03953598E-01 -2.27949455E+00 -1.89783346E-01  8.03953598E-01
 -2.27949455E+00 -1.89783346E-01  8.03953598E-01 -2.27949455E+00 -1.89783346E-01
  8.03953598E-01 -2.27949455E+00 -1.89783346E-01  8.03953598E-01 -4.40549371E+00
 -9.50886945E-01 -3.04091420E-01 -4.40549371E+00 -9.50886945E-01 -3.04091420E-01
 -4.40549371E+00 -9.50886945E-01 -3.04091420E-01 -4.40549371E+00 -9.50886945E-01
 -3.04091420E-01 -4.40549371E+00 -9.50886945E-01 -3.04091420E-01 -4.40549371E+00
 -9.50886945E-01 -3.04091420E-01 -4.57262211E+00 -1.04476055E+00 -2.34655444E+00
 -4.57262211E+00 -1.04476055E+00 -2.34655444E+00 -4.57262211E+00 -1.04476055E+00
 -2.34655444E+00 -4.57262211E+00 -1.04476055E+00 -2.34655444E+00 -4.57262211E+00
 -1.04476055E+00 -2.34655444E+00  2.52464658E+00  3.82754360E+00 -1.06518354E+00
  2.52464658E+00  3.82754360E+00 -1.06518354E+00  2.52464658E+00  3.82754360E+00
 -1.06518354E+00  2.52464658E+00  3.82754360E+00 -1.06518354E+00  2.52464658E+00
  3.82754360E+00 -1.06518354E+00 -6.03456270E+00 -1.50451566E+00  8.06610866E-01
 -6.03456270E+00 -1.50451566E+00  8.06610866E-01 -6.03456270E+00 -1.50451566E+00
  8.06610866E-01 -6.03456270E+00 -1.50451566E+00  8.06610866E-01 -6.03456270E+00
 -1.50451566E+00  8.06610866E-01 -2.12772009E+00 -1.20983238E-01  2.85264998E+00
 -2.12772009E+00 -1.20983238E-01  2.85264998E+00 -2.12772009E+00 -1.20983238E-01
  2.85264998E+00 -2.12772009E+00 -1.20983238E-01  2.85264998E+00 -2.12772009E+00
 -1.20983238E-01  2.85264998E+00 -2.96115521E-01  4.96853278E-01 -2.63873946E+00
 -2.96115521E-01  4.96853278E-01 -2.63873946E+00 -2.96115521E-01  4.96853278E-01
 -2.63873946E+00 -2.96115521E-01  4.96853278E-01 -2.63873946E+00 -2.96115521E-01
  4.96853278E-01 -2.63873946E+00  1.13911226E+00  3.44310244E+00  2.13384638E+00
  1.13911226E+00  3.44310244E+00  2.13384638E+00  1.13911226E+00  3.44310244E+00
  2.13384638E+00  1.13911226E+00  3.44310244E+00  2.13384638E+00  1.13911226E+00
  3.44310244E+00  2.13384638E+00 -5.68209360E-01  4.71438913E+00 -3.70924255E-01
 -5.68209360E-01  4.71438913E+00 -3.70924255E-01 -5.68209360E-01  4.71438913E+00
 -3.70924255E-01 -5.68209360E-01  4.71438913E+00 -3.70924255E-01 -5.68209360E-01
  4.71438913E+00 -3.70924255E-01  2.62391242E+00 -1.57744497E+00  4.55301366E-02
  2.62391242E+00 -1.57744497E+00  4.55301366E-02  2.62391242E+00 -1.57744497E+00
  4.55301366E-02  2.62391242E+00 -1.57744497E+00  4.55301366E-02  2.62391242E+00
 -1.57744497E+00  4.55301366E-02  2.62391242E+00 -1.57744497E+00  4.55301366E-02
  2.62391242E+00 -1.57744497E+00  4.55301366E-02  2.62391242E+00 -1.57744497E+00
  4.55301366E-02  2.62391242E+00 -1.57744497E+00  4.55301366E-02  2.62391242E+00
 -1.57744497E+00  4.55301366E-02  2.62391242E+00 -1.57744497E+00  4.55301366E-02
  2.62391242E+00 -1.57744497E+00  4.55301366E-02  2.62391242E+00 -1.57744497E+00
  4.55301366E-02
Constraint Structure                       R   N=          36
  8.89831727E-01  3.31424252E+00  8.64073987E-02  1.66498317E-02  6.60583694E-01
 -6.10555886E-01 -2.27949455E+00 -1.89783346E-01  8.03953598E-01 -4.40549371E+00
 -9.50886945E-01 -3.04091420E-01 -4.57262211E+00 -1.04476055E+00 -2.34655444E+00
  2.52464658E+00  3.82754360E+00 -1.06518354E+00 -6.03456270E+00 -1.50451566E+00
  8.06610866E-01 -2.12772009E+00 -1.20983238E-01  2.85264998E+00 -2.96115521E-01
  4.96853278E-01 -2.63873946E+00  1.13911226E+00  3.44310244E+00  2.13384638E+00
 -5.68209360E-01  4.71438913E+00 -3.70924255E-01  2.62391242E+00 -1.57744497E+00
  4.55301366E-02
Num ILSW                                   I              100
ILSW                                       I   N=         100
           0           0           0           0           2           0
           0           0           0           0         402          -1
           5           0           0           0           0           0
           0           0           0           0           0           0
           1           0           0           0           0           0
           0           0      100000           0          -1           0
           0           0           0           0           0           0
           0           0           0           1           0           0
           0           0           1           0           0           0
           0           0           4          41           0           0
           0           0           5           0           0           0
           0           0           0           0           0           0
           0           0           0           0           0           0
           0           0           0           0           0           0
           0           0           0           0           0           0
           0           0           0           0           0           0
           0           0           0           0
Num RLSW                                   I               41
RLSW                                       R   N=          41
  8.00000000E-01  7.20000000E-01  1.00000000E+00  8.10000000E-01  2.00000000E-01
  0.00000000E+00  0.00000000E+00  1.00000000E+00  0.00000000E+00  0.00000000E+00
  0.00000000E+00  0.00000000E+00  1.00000000E+00  0.00000000E+00  0.00000000E+00
  0.00000000E+00  0.00000000E+00  1.00000000E+00  0.00000000E+00  0.00000000E+00
  0.00000000E+00  0.00000000E+00  1.00000000E+00  0.00000000E+00  0.00000000E+00
  0.00000000E+00  0.00000000E+00  1.00000000E+00  0.00000000E+00  0.00000000E+00
  0.00000000E+00  0.00000000E+00  0.00000000E+00  0.00000000E+00  0.00000000E+00
  0.00000000E+00  0.00000000E+00  0.00000000E+00  1.00000000E+00  1.00000000E+00
  0.00000000E+00
MxBond                                     I                4
NBond                                      I   N=          12
           4           4           3           3           1           1
           1           1           1           1           1           1
IBond                                      I   N=          48
           2           6          10          11           1           3
           9          12           2           4           8           0
           3           5           7           0           4           0
           0           0           1           0           0           0
           4           0           0           0           3           0
           0           0           2           0           0           0
           1           0           0           0           1           0
           0           0           2           0           0           0
RBond                                      R   N=          48
  1.00000000E+00  1.00000000E+00  1.00000000E+00  1.00000000E+00  1.00000000E+00
  1.00000000E+00  1.00000000E+00  1.00000000E+00  1.00000000E+00  2.00000000E+00
  1.00000000E+00  0.00000000E+00  2.00000000E+00  1.00000000E+00  1.00000000E+00
  0.00000000E+00  1.00000000E+00  0.00000000E+00  0.00000000E+00  0.00000000E+00
  1.00000000E+00  0.00000000E+00  0.00000000E+00  0.00000000E+00  1.00000000E+00
  0.00000000E+00  0.00000000E+00  0.00000000E+00  1.00000000E+00  0.00000000E+00
  0.00000000E+00  0.00000000E+00  1.00000000E+00  0.00000000E+00  0.00000000E+00
  0.00000000E+00  1.00000000E+00  0.00000000E+00  0.00000000E+00  0.00000000E+00
  1.00000000E+00  0.00000000E+00  0.00000000E+00  0.00000000E+00  1.00000000E+00
  0.00000000E+00  0.00000000E+00  0.00000000E+00
Virial Ratio                               R      2.003070825471972E+00
SCF Energy                                 R     -6.168940024807705E+02
Total Energy                               R     -6.168940024807705E+02
RMS Density                                R      8.132362600890706E-12
Nuclear derivative order                   I                0
External E-field                           R   N=          35
  0.00000000E+00  0.00000000E+00  0.00000000E+00  0.00000000E+00  0.00000000E+00
  0.00000000E+00  0.00000000E+00  0.00000000E+00  0.00000000E+00  0.00000000E+00
  0.00000000E+00  0.00000000E+00  0.00000000E+00  0.00000000E+00  0.00000000E+00
  0.00000000E+00  0.00000000E+00  0.00000000E+00  0.00000000E+00  0.00000000E+00
  0.00000000E+00  0.00000000E+00  0.00000000E+00  0.00000000E+00  0.00000000E+00
  0.00000000E+00  0.00000000E+00  0.00000000E+00  0.00000000E+00  0.00000000E+00
  0.00000000E+00  0.00000000E+00  0.00000000E+00  0.00000000E+00  0.00000000E+00
IOpCl                                      I                0
IROHF                                      I                0
Alpha Orbital Energies                     R   N=         167
 -1.01534362E+02 -1.02470890E+01 -1.01939437E+01 -1.01838511E+01 -1.01821076E+01
 -9.44879471E+00 -7.21314390E+00 -7.20371041E+00 -7.20353843E+00 -8.67615801E-01
 -7.86904946E-01 -7.42391146E-01 -6.39171020E-01 -5.77956178E-01 -4.86182646E-01
 -4.78412951E-01 -4.37616836E-01 -4.17484492E-01 -4.09507800E-01 -3.75228645E-01
 -3.63244801E-01 -3.06090651E-01 -2.98760831E-01 -2.80216625E-01 -3.23552034E-02
 -7.76086993E-03  6.36397784E-03  6.87099267E-03  2.18418264E-02  2.85186746E-02
  3.85303466E-02  4.19956685E-02  6.35451165E-02  6.50734003E-02  7.24180361E-02
  8.29659339E-02  8.73803252E-02  9.90596859E-02  1.10684105E-01  1.14874103E-01
  1.18564816E-01  1.21863776E-01  1.28438591E-01  1.31018822E-01  1.33256805E-01
  1.41725273E-01  1.49624190E-01  1.57331936E-01  1.61447464E-01  1.64150151E-01
  1.72845176E-01  1.89399273E-01  1.92032757E-01  2.13652608E-01  2.19660547E-01
  2.25154972E-01  2.48500319E-01  2.60573458E-01  2.70844238E-01  2.94830193E-01
  3.37825053E-01  3.55884354E-01  3.89959520E-01  4.22899051E-01  4.28914263E-01
  4.49896447E-01  4.56954688E-01  4.78877740E-01  4.87911781E-01  4.95534972E-01
  5.26582856E-01  5.27087333E-01  5.66648485E-01  5.86394695E-01  5.97004272E-01
  6.25233682E-01  6.37942383E-01  6.50362400E-01  6.51761430E-01  6.63171031E-01
  6.92126435E-01  7.04340244E-01  7.36662560E-01  7.38261546E-01  7.86267586E-01
  8.17489773E-01  8.31750452E-01  8.63325223E-01  8.89308495E-01  9.04502736E-01
  9.40204153E-01  9.62608944E-01  1.00441177E+00  1.03430084E+00  1.06473412E+00
  1.09433745E+00  1.12361191E+00  1.17354271E+00  1.19713016E+00  1.28910246E+00
  1.38995272E+00  1.42053296E+00  1.43539450E+00  1.46796403E+00  1.51521208E+00
  1.54146244E+00  1.56410914E+00  1.58994212E+00  1.59347341E+00  1.63495559E+00
  1.66436395E+00  1.69096692E+00  1.70524722E+00  1.72439788E+00  1.77106472E+00
  1.78794405E+00  1.87100943E+00  1.89128576E+00  1.92608636E+00  1.99176329E+00
  2.01153943E+00  2.06684653E+00  2.12459767E+00  2.17373061E+00  2.18343229E+00
  2.19616774E+00  2.24864079E+00  2.29501655E+00  2.30981322E+00  2.35395095E+00
  2.37938537E+00  2.45559535E+00  2.47720377E+00  2.47736510E+00  2.51671858E+00
  2.56435152E+00  2.58284984E+00  2.59604607E+00  2.60044642E+00  2.64543413E+00
  2.72910182E+00  2.73841484E+00  2.74751876E+00  2.78272188E+00  2.85177524E+00
  2.85838890E+00  2.92799178E+00  3.07997161E+00  3.09125198E+00  3.18093514E+00
  3.40400942E+00  3.50710237E+00  3.71586634E+00  3.73130466E+00  3.85515881E+00
  3.94754515E+00  4.11605003E+00  4.28622333E+00  9.75610084E+00  2.37212954E+01
  2.37887784E+01  2.39406973E+01  2.42529299E+01  2.59308988E+01  2.59724791E+01
  2.64458456E+01  2.15745999E+02
Alpha MO coefficients                      R   N=       27889
  1.53182651E-07 -3.09586960E-07 -1.68210133E-06 -2.02948918E-06 -6.80916780E-07
  1.07824749E-07  1.41563900E-05  1.54444264E-05  6.14812770E-06  9.00627212E-06
  2.52564591E-05  2.95233395E-05  1.77749555E-05 -1.70436484E-03 -1.36000056E-04
  5.13751415E-04  5.09466905E-05  7.47844099E-06 -4.72226862E-06 -5.13554121E-06
  1.08542981E-05 -8.12638651E-07  1.42863409E-06 -2.91438174E-06  1.26102034E-05
 -1.16267301E-05  5.66743641E-06 -1.58608417E-05 -1.58302827E-05  1.76708723E-05
 -2.13137823E-05  1.70560229E-04  1.36785201E-04 -1.20917836E-04 -1.14159149E-06
  3.67617161E-03 -4.82815161E-04  4.67849513E-04  8.24182521E-04  1.02935619E-05
 -1.32011084E-06  3.41193200E-06 -1.97478817E-06  8.17699809E-06 -5.95718680E-07
  1.74166317E-06  4.27229883E-06 -2.43205098E-06 -4.27430175E-06 -7.98620945E-06
 -2.47622120E-05  9.42794243E-06  2.55811719E-05  2.14743957E-05  1.43625612E-05
 -9.71311465E-06 -6.40745333E-05 -1.04297923E-03 -1.22364358E-03 -3.90360430E-04
 -1.19013499E-04  6.75114296E-06  6.13436201E-06 -5.84515626E-06  7.67433153E-07
 -4.22646426E-06  3.01149210E-07 -8.97943147E-07 -1.73399606E-06  6.70331318E-07
  6.56882760E-07  9.32094704E-06  7.96917109E-06 -2.59196984E-06  1.57607301E-06
 -5.63765080E-05 -8.38892982E-05 -1.94207491E-05  6.07701903E-05 -1.72263446E-03
 -3.44980181E-04 -1.84511938E-04 -1.30086572E-04 -4.73784394E-06 -1.85237207E-06
 -3.55010827E-06 -1.78742874E-06 -1.55375178E-06 -3.02899730E-06  3.37767632E-05
  6.11620858E-05  4.66943539E-05  6.48837535E-06 -6.01736109E-08  6.27579158E-06
  1.26525663E-05 -7.87222195E-05  8.44900989E-05  2.29127444E-04  7.38169053E-06
  1.29844704E-05 -9.70403952E-06  2.20907714E-06 -2.09805506E-05 -4.90787842E-05
 -1.27220515E-04 -9.25195332E-07 -2.75445657E-07  1.24774224E-06  5.83720997E-06
 -3.53545312E-05  6.81793452E-05  1.45235823E-04 -1.10825767E-05  1.98932545E-06
  1.35201530E-05 -1.26715945E-06 -6.15513603E-05 -1.06924626E-04  1.22565518E-04
 -7.58906217E-06  2.19420355E-06 -1.67716445E-05  1.04738505E-05 -5.75033472E-05
 -1.35399938E-05  7.92083758E-05 -4.27587409E-06  1.23694299E-05  1.32517565E-05
 -7.07488828E-06  3.00918259E-05 -1.26056120E-04 -3.03411008E-04 -4.92980528E-07
 -3.41548634E-06 -6.48379033E-07  4.11609652E-01  6.54076173E-01  1.50039840E-02