(R)-3-chloro-1-butene tau=120                                           
SP        RB3LYP                                                      6-311++G(d,p)       
Number of atoms                            I               12
Info1-9                                    I   N=           9
          26          26           0           0           0         110
           1          18        -502
Full Title                                 C   N=           3
(R)-3-chloro-1-butene tau=120       
Route                                      C   N=           7
#P B3LYP/6-311++G** scf(conver=11) int=ultrafine polar=optro
t cphf(rdfreq,conver=11)
Charge                                     I                0
Multiplicity                               I                1
Number of electrons                        I               48
Number of alpha electrons                  I               24
Number of beta electrons                   I               24
Number of basis functions                  I              167
Number of independent functions            I              167
Number of point charges in /Mol/           I                0
Number of translation vectors              I                0
Atomic numbers                             I   N=          12
           6           6           6           6           1           1
           1           1           1           1           1          17
Nuclear charges                            R   N=          12
  6.00000000E+00  6.00000000E+00  6.00000000E+00  6.00000000E+00  1.00000000E+00
  1.00000000E+00  1.00000000E+00  1.00000000E+00  1.00000000E+00  1.00000000E+00
  1.00000000E+00  1.70000000E+01
Current cartesian coordinates              R   N=          36
 -6.99664009E-01  3.35797413E+00 -8.35139675E-02 -3.74870104E-02  6.62872759E-01
  6.97639556E-01  2.22676077E+00 -2.05000746E-01 -7.32617538E-01  4.37128754E+00
 -1.07935332E+00  2.46643026E-01  4.63447934E+00 -1.33291446E+00  2.27100175E+00
 -2.32786824E+00  4.10234119E+00  9.59319442E-01  5.94843093E+00 -1.58225190E+00
 -9.68424374E-01  2.05294187E+00 -2.49736156E-03 -2.77436332E+00  2.04321532E-01
  4.76043670E-01  2.73395118E+00 -1.10961124E+00  3.43392329E+00 -2.10775717E+00
  9.42167303E-01  4.57482972E+00  2.84540756E-01 -2.67707325E+00 -1.53461359E+00
 -6.86573366E-02
Number of symbols in /Mol/                 I                0
Force Field                                I                0
Atom Types                                 C   N=          12
                                                            
                                                            
                        
Int Atom Types                             I   N=          12
           0           0           0           0           0           0
           0           0           0           0           0           0
MM charges                                 R   N=          12
  0.00000000E+00  0.00000000E+00  0.00000000E+00  0.00000000E+00  0.00000000E+00
  0.00000000E+00  0.00000000E+00  0.00000000E+00  0.00000000E+00  0.00000000E+00
  0.00000000E+00  0.00000000E+00
Integer atomic weights                     I   N=          12
          12          12          12          12           1           1
           1           1           1           1           1          35
Real atomic weights                        R   N=          12
  1.20000000E+01  1.20000000E+01  1.20000000E+01  1.20000000E+01  1.00782504E+00
  1.00782504E+00  1.00782504E+00  1.00782504E+00  1.00782504E+00  1.00782504E+00
  1.00782504E+00  3.49688527E+01
Atom fragment info                         I   N=          12
           0           0           0           0           0           0
           0           0           0           0           0           0
Atom residue num                           I   N=          12
           0           0           0           0           0           0
           0           0           0           0           0           0
Nuclear spins                              I   N=          12
           0           0           0           0           1           1
           1           1           1           1           1           3
Nuclear ZEff                               R   N=          12
 -3.60000000E+00 -3.60000000E+00 -3.60000000E+00 -3.60000000E+00 -1.00000000E+00
 -1.00000000E+00 -1.00000000E+00 -1.00000000E+00 -1.00000000E+00 -1.00000000E+00
 -1.00000000E+00 -1.42400000E+01
Nuclear ZNuc                               R   N=          12
  6.00000000E+00  6.00000000E+00  6.00000000E+00  6.00000000E+00  1.00000000E+00
  1.00000000E+00  1.00000000E+00  1.00000000E+00  1.00000000E+00  1.00000000E+00
  1.00000000E+00  1.70000000E+01
Nuclear QMom                               R   N=          12
  0.00000000E+00  0.00000000E+00  0.00000000E+00  0.00000000E+00  0.00000000E+00
  0.00000000E+00  0.00000000E+00  0.00000000E+00  0.00000000E+00  0.00000000E+00
  0.00000000E+00 -8.16500000E+00
Nuclear GFac                               R   N=          12
  0.00000000E+00  0.00000000E+00  0.00000000E+00  0.00000000E+00  2.79284600E+00
  2.79284600E+00  2.79284600E+00  2.79284600E+00  2.79284600E+00  2.79284600E+00
  2.79284600E+00  8.21874000E-01
MicOpt                                     I   N=          12
          -1          -1          -1          -1          -1          -1
          -1          -1          -1          -1          -1          -1
Number of residues                         I                0
Number of secondary structures             I                0
SymInf integers                            I   N=          26
           1           1           1           1           1           0
           0           0           0           0           0           0
           0           0           0           0           0           0
           0           0           0           0           0           0
           0           0
RotTr to input orientation                 R   N=          12
 -9.99473197E-01  3.24500431E-02  5.68832784E-04  3.24538397E-02  9.99433076E-01
  8.95957451E-03 -2.77771721E-04  8.97331538E-03 -9.99959700E-01 -2.65616205E-03
  2.80358785E-03  2.93532144E-03
Number of contracted shells                I               72
Number of primitive shells                 I              126
Pure/Cartesian d shells                    I                0
Pure/Cartesian f shells                    I                0
Highest angular momentum                   I                2
Largest degree of contraction              I                6
Shell types                                I   N=          72
           0          -1          -1          -1          -1          -2
           0          -1          -1          -1          -1          -2
           0          -1          -1          -1          -1          -2
           0          -1          -1          -1          -1          -2
           0           0           0           0           1           0
           0           0           0           1           0           0
           0           0           1           0           0           0
           0           1           0           0           0           0
           1           0           0           0           0           1
           0           0           0           0           1           0
           0           0           0           0           0          -1
           1           1           1           1           1          -2
Number of primitives per shell             I   N=          72
           6           3           1           1           1           1
           6           3           1           1           1           1
           6           3           1           1           1           1
           6           3           1           1           1           1
           3           1           1           1           1           3
           1           1           1           1           3           1
           1           1           1           3           1           1
           1           1           3           1           1           1
           1           3           1           1           1           1
           3           1           1           1           1           6
           3           1           1           1           1           1
           5           2           1           1           1           1
Shell to atom map                          I   N=          72
           1           1           1           1           1           1
           2           2           2           2           2           2
           3           3           3           3           3           3
           4           4           4           4           4           4
           5           5           5           5           5           6
           6           6           6           6           7           7
           7           7           7           8           8           8
           8           8           9           9           9           9
           9          10          10          10          10          10
          11          11          11          11          11          12
          12          12          12          12          12          12
          12          12          12          12          12          12
Primitive exponents                        R   N=         126
  4.56324000E+03  6.82024000E+02  1.54973000E+02  4.44553000E+01  1.30290000E+01
  1.82773000E+00  2.09642000E+01  4.80331000E+00  1.45933000E+00  4.83456000E-01
  1.45585000E-01  4.38000000E-02  6.26000000E-01  4.56324000E+03  6.82024000E+02
  1.54973000E+02  4.44553000E+01  1.30290000E+01  1.82773000E+00  2.09642000E+01
  4.80331000E+00  1.45933000E+00  4.83456000E-01  1.45585000E-01  4.38000000E-02
  6.26000000E-01  4.56324000E+03  6.82024000E+02  1.54973000E+02  4.44553000E+01
  1.30290000E+01  1.82773000E+00  2.09642000E+01  4.80331000E+00  1.45933000E+00
  4.83456000E-01  1.45585000E-01  4.38000000E-02  6.26000000E-01  4.56324000E+03
  6.82024000E+02  1.54973000E+02  4.44553000E+01  1.30290000E+01  1.82773000E+00
  2.09642000E+01  4.80331000E+00  1.45933000E+00  4.83456000E-01  1.45585000E-01
  4.38000000E-02  6.26000000E-01  3.38650000E+01  5.09479000E+00  1.15879000E+00
  3.25840000E-01  1.02741000E-01  3.60000000E-02  7.50000000E-01  3.38650000E+01
  5.09479000E+00  1.15879000E+00  3.25840000E-01  1.02741000E-01  3.60000000E-02
  7.50000000E-01  3.38650000E+01  5.09479000E+00  1.15879000E+00  3.25840000E-01
  1.02741000E-01  3.60000000E-02  7.50000000E-01  3.38650000E+01  5.09479000E+00
  1.15879000E+00  3.25840000E-01  1.02741000E-01  3.60000000E-02  7.50000000E-01
  3.38650000E+01  5.09479000E+00  1.15879000E+00  3.25840000E-01  1.02741000E-01
  3.60000000E-02  7.50000000E-01  3.38650000E+01  5.09479000E+00  1.15879000E+00
  3.25840000E-01  1.02741000E-01  3.60000000E-02  7.50000000E-01  3.38650000E+01
  5.09479000E+00  1.15879000E+00  3.25840000E-01  1.02741000E-01  3.60000000E-02
  7.50000000E-01  1.05819000E+05  1.58720000E+04  3.61965000E+03  1.03080000E+03
  3.39908000E+02  1.24538000E+02  1.24538000E+02  4.95135000E+01  2.08056000E+01
  6.58346000E+00  2.56468000E+00  5.59763000E-01  1.83273000E-01  4.83000000E-02
  5.89776000E+02  1.39849000E+02  4.51413000E+01  1.68733000E+01  2.77152000E+00
  6.74110000E+00  2.77152000E+00  1.02387000E+00  3.81368000E-01  1.09437000E-01
  7.50000000E-01
Contraction coefficients                   R   N=         126
  1.96665025E-03  1.52306019E-02  7.61269097E-02  2.60801033E-01  6.16462078E-01
  2.21006028E-01  1.14660081E-01  9.19999648E-01 -3.03068213E-03  1.00000000E+00
  1.00000000E+00  1.00000000E+00  1.00000000E+00  1.96665025E-03  1.52306019E-02
  7.61269097E-02  2.60801033E-01  6.16462078E-01  2.21006028E-01  1.14660081E-01
  9.19999648E-01 -3.03068213E-03  1.00000000E+00  1.00000000E+00  1.00000000E+00
  1.00000000E+00  1.96665025E-03  1.52306019E-02  7.61269097E-02  2.60801033E-01
  6.16462078E-01  2.21006028E-01  1.14660081E-01  9.19999648E-01 -3.03068213E-03
  1.00000000E+00  1.00000000E+00  1.00000000E+00  1.00000000E+00  1.96665025E-03
  1.52306019E-02  7.61269097E-02  2.60801033E-01  6.16462078E-01  2.21006028E-01
  1.14660081E-01  9.19999648E-01 -3.03068213E-03  1.00000000E+00  1.00000000E+00
  1.00000000E+00  1.00000000E+00  2.54938145E-02  1.90373109E-01  8.52161486E-01
  1.00000000E+00  1.00000000E+00  1.00000000E+00  1.00000000E+00  2.54938145E-02
  1.90373109E-01  8.52161486E-01  1.00000000E+00  1.00000000E+00  1.00000000E+00
  1.00000000E+00  2.54938145E-02  1.90373109E-01  8.52161486E-01  1.00000000E+00
  1.00000000E+00  1.00000000E+00  1.00000000E+00  2.54938145E-02  1.90373109E-01
  8.52161486E-01  1.00000000E+00  1.00000000E+00  1.00000000E+00  1.00000000E+00
  2.54938145E-02  1.90373109E-01  8.52161486E-01  1.00000000E+00  1.00000000E+00
  1.00000000E+00  1.00000000E+00  2.54938145E-02  1.90373109E-01  8.52161486E-01
  1.00000000E+00  1.00000000E+00  1.00000000E+00  1.00000000E+00  2.54938145E-02
  1.90373109E-01  8.52161486E-01  1.00000000E+00  1.00000000E+00  1.00000000E+00
  1.00000000E+00  7.38000247E-04  5.71800191E-03  2.94950099E-02  1.17286039E-01
  3.62949121E-01  5.84149195E-01  1.34176973E-01  6.24249876E-01  2.91755942E-01
  1.00000000E+00  1.00000000E+00  1.00000000E+00  1.00000000E+00  1.00000000E+00
  3.66556935E-03  2.83679194E-02  1.24756603E-01  3.39654631E-01  7.47585963E-01
 -1.57224381E+00  9.92388882E-01  1.00000000E+00  1.00000000E+00  1.00000000E+00
  1.00000000E+00
P(S=P) Contraction coefficients            R   N=         126
  0.00000000E+00  0.00000000E+00  0.00000000E+00  0.00000000E+00  0.00000000E+00
  0.00000000E+00  4.02486927E-02  2.37593957E-01  8.15853851E-01  1.00000000E+00
  1.00000000E+00  1.00000000E+00  0.00000000E+00  0.00000000E+00  0.00000000E+00
  0.00000000E+00  0.00000000E+00  0.00000000E+00  0.00000000E+00  4.02486927E-02
  2.37593957E-01  8.15853851E-01  1.00000000E+00  1.00000000E+00  1.00000000E+00
  0.00000000E+00  0.00000000E+00  0.00000000E+00  0.00000000E+00  0.00000000E+00
  0.00000000E+00  0.00000000E+00  4.02486927E-02  2.37593957E-01  8.15853851E-01
  1.00000000E+00  1.00000000E+00  1.00000000E+00  0.00000000E+00  0.00000000E+00
  0.00000000E+00  0.00000000E+00  0.00000000E+00  0.00000000E+00  0.00000000E+00
  4.02486927E-02  2.37593957E-01  8.15853851E-01  1.00000000E+00  1.00000000E+00
  1.00000000E+00  0.00000000E+00  0.00000000E+00  0.00000000E+00  0.00000000E+00
  0.00000000E+00  0.00000000E+00  0.00000000E+00  0.00000000E+00  0.00000000E+00
  0.00000000E+00  0.00000000E+00  0.00000000E+00  0.00000000E+00  0.00000000E+00
  0.00000000E+00  0.00000000E+00  0.00000000E+00  0.00000000E+00  0.00000000E+00
  0.00000000E+00  0.00000000E+00  0.00000000E+00  0.00000000E+00  0.00000000E+00
  0.00000000E+00  0.00000000E+00  0.00000000E+00  0.00000000E+00  0.00000000E+00
  0.00000000E+00  0.00000000E+00  0.00000000E+00  0.00000000E+00  0.00000000E+00
  0.00000000E+00  0.00000000E+00  0.00000000E+00  0.00000000E+00  0.00000000E+00
  0.00000000E+00  0.00000000E+00  0.00000000E+00  0.00000000E+00  0.00000000E+00
  0.00000000E+00  0.00000000E+00  0.00000000E+00  0.00000000E+00  0.00000000E+00
  0.00000000E+00  0.00000000E+00  0.00000000E+00  0.00000000E+00  0.00000000E+00
  0.00000000E+00  0.00000000E+00  0.00000000E+00  0.00000000E+00  0.00000000E+00
  0.00000000E+00  0.00000000E+00  0.00000000E+00  0.00000000E+00  1.00000000E+00
  0.00000000E+00  0.00000000E+00  0.00000000E+00  0.00000000E+00  0.00000000E+00
  0.00000000E+00  0.00000000E+00  0.00000000E+00  0.00000000E+00  0.00000000E+00
  0.00000000E+00
Coordinates of each shell                  R   N=         216
 -6.99664009E-01  3.35797413E+00 -8.35139675E-02 -6.99664009E-01  3.35797413E+00
 -8.35139675E-02 -6.99664009E-01  3.35797413E+00 -8.35139675E-02 -6.99664009E-01
  3.35797413E+00 -8.35139675E-02 -6.99664009E-01  3.35797413E+00 -8.35139675E-02
 -6.99664009E-01  3.35797413E+00 -8.35139675E-02 -3.74870104E-02  6.62872759E-01
  6.97639556E-01 -3.74870104E-02  6.62872759E-01  6.97639556E-01 -3.74870104E-02
  6.62872759E-01  6.97639556E-01 -3.74870104E-02  6.62872759E-01  6.97639556E-01
 -3.74870104E-02  6.62872759E-01  6.97639556E-01 -3.74870104E-02  6.62872759E-01
  6.97639556E-01  2.22676077E+00 -2.05000746E-01 -7.32617538E-01  2.22676077E+00
 -2.05000746E-01 -7.32617538E-01  2.22676077E+00 -2.05000746E-01 -7.32617538E-01
  2.22676077E+00 -2.05000746E-01 -7.32617538E-01  2.22676077E+00 -2.05000746E-01
 -7.32617538E-01  2.22676077E+00 -2.05000746E-01 -7.32617538E-01  4.37128754E+00
 -1.07935332E+00  2.46643026E-01  4.37128754E+00 -1.07935332E+00  2.46643026E-01
  4.37128754E+00 -1.07935332E+00  2.46643026E-01  4.37128754E+00 -1.07935332E+00
  2.46643026E-01  4.37128754E+00 -1.07935332E+00  2.46643026E-01  4.37128754E+00
 -1.07935332E+00  2.46643026E-01  4.63447934E+00 -1.33291446E+00  2.27100175E+00
  4.63447934E+00 -1.33291446E+00  2.27100175E+00  4.63447934E+00 -1.33291446E+00
  2.27100175E+00  4.63447934E+00 -1.33291446E+00  2.27100175E+00  4.63447934E+00
 -1.33291446E+00  2.27100175E+00 -2.32786824E+00  4.10234119E+00  9.59319442E-01
 -2.32786824E+00  4.10234119E+00  9.59319442E-01 -2.32786824E+00  4.10234119E+00
  9.59319442E-01 -2.32786824E+00  4.10234119E+00  9.59319442E-01 -2.32786824E+00
  4.10234119E+00  9.59319442E-01  5.94843093E+00 -1.58225190E+00 -9.68424374E-01
  5.94843093E+00 -1.58225190E+00 -9.68424374E-01  5.94843093E+00 -1.58225190E+00
 -9.68424374E-01  5.94843093E+00 -1.58225190E+00 -9.68424374E-01  5.94843093E+00
 -1.58225190E+00 -9.68424374E-01  2.05294187E+00 -2.49736156E-03 -2.77436332E+00
  2.05294187E+00 -2.49736156E-03 -2.77436332E+00  2.05294187E+00 -2.49736156E-03
 -2.77436332E+00  2.05294187E+00 -2.49736156E-03 -2.77436332E+00  2.05294187E+00
 -2.49736156E-03 -2.77436332E+00  2.04321532E-01  4.76043670E-01  2.73395118E+00
  2.04321532E-01  4.76043670E-01  2.73395118E+00  2.04321532E-01  4.76043670E-01
  2.73395118E+00  2.04321532E-01  4.76043670E-01  2.73395118E+00  2.04321532E-01
  4.76043670E-01  2.73395118E+00 -1.10961124E+00  3.43392329E+00 -2.10775717E+00
 -1.10961124E+00  3.43392329E+00 -2.10775717E+00 -1.10961124E+00  3.43392329E+00
 -2.10775717E+00 -1.10961124E+00  3.43392329E+00 -2.10775717E+00 -1.10961124E+00
  3.43392329E+00 -2.10775717E+00  9.42167303E-01  4.57482972E+00  2.84540756E-01
  9.42167303E-01  4.57482972E+00  2.84540756E-01  9.42167303E-01  4.57482972E+00
  2.84540756E-01  9.42167303E-01  4.57482972E+00  2.84540756E-01  9.42167303E-01
  4.57482972E+00  2.84540756E-01 -2.67707325E+00 -1.53461359E+00 -6.86573366E-02
 -2.67707325E+00 -1.53461359E+00 -6.86573366E-02 -2.67707325E+00 -1.53461359E+00
 -6.86573366E-02 -2.67707325E+00 -1.53461359E+00 -6.86573366E-02 -2.67707325E+00
 -1.53461359E+00 -6.86573366E-02 -2.67707325E+00 -1.53461359E+00 -6.86573366E-02
 -2.67707325E+00 -1.53461359E+00 -6.86573366E-02 -2.67707325E+00 -1.53461359E+00
 -6.86573366E-02 -2.67707325E+00 -1.53461359E+00 -6.86573366E-02 -2.67707325E+00
 -1.53461359E+00 -6.86573366E-02 -2.67707325E+00 -1.53461359E+00 -6.86573366E-02
 -2.67707325E+00 -1.53461359E+00 -6.86573366E-02 -2.67707325E+00 -1.53461359E+00
 -6.86573366E-02
Constraint Structure                       R   N=          36
 -6.99664009E-01  3.35797413E+00 -8.35139675E-02 -3.74870104E-02  6.62872759E-01
  6.97639556E-01  2.22676077E+00 -2.05000746E-01 -7.32617538E-01  4.37128754E+00
 -1.07935332E+00  2.46643026E-01  4.63447934E+00 -1.33291446E+00  2.27100175E+00
 -2.32786824E+00  4.10234119E+00  9.59319442E-01  5.94843093E+00 -1.58225190E+00
 -9.68424374E-01  2.05294187E+00 -2.49736156E-03 -2.77436332E+00  2.04321532E-01
  4.76043670E-01  2.73395118E+00 -1.10961124E+00  3.43392329E+00 -2.10775717E+00
  9.42167303E-01  4.57482972E+00  2.84540756E-01 -2.67707325E+00 -1.53461359E+00
 -6.86573366E-02
Num ILSW                                   I              100
ILSW                                       I   N=         100
           0           0           0           0           2           0
           0           0           0           0         402          -1
           5           0           0           0           0           0
           0           0           0           0           0           0
           1           0           0           0           0           0
           0           0      100000           0          -1           0
           0           0           0           0           0           0
           0           0           0           1           0           0
           0           0           1           0           0           0
           0           0           4          41           0           0
           0           0           5           0           0           0
           0           0           0           0           0           0
           0           0           0           0           0           0
           0           0           0           0           0           0
           0           0           0           0           0           0
           0           0           0           0           0           0
           0           0           0           0
Num RLSW                                   I               41
RLSW                                       R   N=          41
  8.00000000E-01  7.20000000E-01  1.00000000E+00  8.10000000E-01  2.00000000E-01
  0.00000000E+00  0.00000000E+00  1.00000000E+00  0.00000000E+00  0.00000000E+00
  0.00000000E+00  0.00000000E+00  1.00000000E+00  0.00000000E+00  0.00000000E+00
  0.00000000E+00  0.00000000E+00  1.00000000E+00  0.00000000E+00  0.00000000E+00
  0.00000000E+00  0.00000000E+00  1.00000000E+00  0.00000000E+00  0.00000000E+00
  0.00000000E+00  0.00000000E+00  1.00000000E+00  0.00000000E+00  0.00000000E+00
  0.00000000E+00  0.00000000E+00  0.00000000E+00  0.00000000E+00  0.00000000E+00
  0.00000000E+00  0.00000000E+00  0.00000000E+00  1.00000000E+00  1.00000000E+00
  0.00000000E+00
MxBond                                     I                4
NBond                                      I   N=          12
           4           4           3           3           1           1
           1           1           1           1           1           1
IBond                                      I   N=          48
           2           6          10          11           1           3
           9          12           2           4           8           0
           3           5           7           0           4           0
           0           0           1           0           0           0
           4           0           0           0           3           0
           0           0           2           0           0           0
           1           0           0           0           1           0
           0           0           2           0           0           0
RBond                                      R   N=          48
  1.00000000E+00  1.00000000E+00  1.00000000E+00  1.00000000E+00  1.00000000E+00
  1.00000000E+00  1.00000000E+00  1.00000000E+00  1.00000000E+00  2.00000000E+00
  1.00000000E+00  0.00000000E+00  2.00000000E+00  1.00000000E+00  1.00000000E+00
  0.00000000E+00  1.00000000E+00  0.00000000E+00  0.00000000E+00  0.00000000E+00
  1.00000000E+00  0.00000000E+00  0.00000000E+00  0.00000000E+00  1.00000000E+00
  0.00000000E+00  0.00000000E+00  0.00000000E+00  1.00000000E+00  0.00000000E+00
  0.00000000E+00  0.00000000E+00  1.00000000E+00  0.00000000E+00  0.00000000E+00
  0.00000000E+00  1.00000000E+00  0.00000000E+00  0.00000000E+00  0.00000000E+00
  1.00000000E+00  0.00000000E+00  0.00000000E+00  0.00000000E+00  1.00000000E+00
  0.00000000E+00  0.00000000E+00  0.00000000E+00
Virial Ratio                               R      2.003111015673832E+00
SCF Energy                                 R     -6.168944687185325E+02
Total Energy                               R     -6.168944687185325E+02
RMS Density                                R      7.061835250823906E-12
Nuclear derivative order                   I                0
External E-field                           R   N=          35
  0.00000000E+00  0.00000000E+00  0.00000000E+00  0.00000000E+00  0.00000000E+00
  0.00000000E+00  0.00000000E+00  0.00000000E+00  0.00000000E+00  0.00000000E+00
  0.00000000E+00  0.00000000E+00  0.00000000E+00  0.00000000E+00  0.00000000E+00
  0.00000000E+00  0.00000000E+00  0.00000000E+00  0.00000000E+00  0.00000000E+00
  0.00000000E+00  0.00000000E+00  0.00000000E+00  0.00000000E+00  0.00000000E+00
  0.00000000E+00  0.00000000E+00  0.00000000E+00  0.00000000E+00  0.00000000E+00
  0.00000000E+00  0.00000000E+00  0.00000000E+00  0.00000000E+00  0.00000000E+00
IOpCl                                      I                0
IROHF                                      I                0
Alpha Orbital Energies                     R   N=         167
 -1.01535169E+02 -1.02488586E+01 -1.01930770E+01 -1.01836756E+01 -1.01834220E+01
 -9.44937485E+00 -7.21376222E+00 -7.20428410E+00 -7.20414320E+00 -8.66893434E-01
 -7.86397329E-01 -7.42859811E-01 -6.39795975E-01 -5.77652949E-01 -4.84599484E-01
 -4.76243465E-01 -4.45740275E-01 -4.15161119E-01 -4.01801205E-01 -3.76004405E-01
 -3.66456895E-01 -3.06566175E-01 -2.99893803E-01 -2.79152181E-01 -3.26148585E-02
 -7.83096273E-03  5.97570629E-03  7.19673198E-03  1.99995166E-02  2.85069567E-02
  3.88325964E-02  4.04879866E-02  6.38173824E-02  6.48442675E-02  7.46453447E-02
  8.26763168E-02  8.79397899E-02  9.75113264E-02  1.11154951E-01  1.13883034E-01
  1.18055415E-01  1.21398704E-01  1.28835113E-01  1.30664149E-01  1.35920092E-01
  1.42507931E-01  1.49687784E-01  1.55314357E-01  1.60564961E-01  1.64508156E-01
  1.72898937E-01  1.88845596E-01  1.92737934E-01  2.13828740E-01  2.18916446E-01
  2.28709970E-01  2.46027333E-01  2.57267306E-01  2.68448307E-01  2.92346651E-01
  3.40770188E-01  3.56059923E-01  3.90111207E-01  4.27028354E-01  4.30690971E-01
  4.47975728E-01  4.59809220E-01  4.77684263E-01  4.89769677E-01  4.95599397E-01
  5.22666911E-01  5.28211856E-01  5.69272548E-01  5.88748849E-01  6.02347708E-01
  6.23096391E-01  6.39655134E-01  6.53484209E-01  6.57256148E-01  6.64156013E-01
  6.92935944E-01  7.08035036E-01  7.31169665E-01  7.33426406E-01  7.87286272E-01
  8.16650526E-01  8.30900007E-01  8.59711463E-01  8.88982662E-01  9.00456574E-01
  9.41056243E-01  9.63315786E-01  1.00191629E+00  1.03445361E+00  1.05870000E+00
  1.07227086E+00  1.13904655E+00  1.17102768E+00  1.20693095E+00  1.30015287E+00
  1.39182916E+00  1.42564788E+00  1.44656832E+00  1.46715420E+00  1.51351801E+00
  1.53063401E+00  1.55708089E+00  1.57654806E+00  1.58031195E+00  1.62501334E+00
  1.66309968E+00  1.69683080E+00  1.71389575E+00  1.73242716E+00  1.76876757E+00
  1.78462338E+00  1.87069086E+00  1.88458133E+00  1.92425147E+00  1.99092532E+00
  2.01641779E+00  2.07093275E+00  2.12147806E+00  2.17273262E+00  2.18706643E+00
  2.20466175E+00  2.24504102E+00  2.28988242E+00  2.31231755E+00  2.35281993E+00
  2.37693082E+00  2.45093068E+00  2.46338299E+00  2.48535109E+00  2.52221722E+00
  2.55375759E+00  2.57238499E+00  2.59067459E+00  2.60644687E+00  2.65507256E+00
  2.72567300E+00  2.73565942E+00  2.74890525E+00  2.78542218E+00  2.85944990E+00
  2.86419914E+00  2.93773715E+00  3.07469238E+00  3.08417592E+00  3.17880811E+00
  3.39846814E+00  3.51025743E+00  3.70973083E+00  3.78100115E+00  3.78800997E+00
  3.95144172E+00  4.11795536E+00  4.28332166E+00  9.75469513E+00  2.37169271E+01
  2.37933526E+01  2.39345072E+01  2.42550255E+01  2.59228062E+01  2.59662356E+01
  2.64419745E+01  2.15744448E+02
Alpha MO coefficients                      R   N=       27889
  3.61872560E-07 -8.76120293E-07  2.53538571E-06 -3.18133141E-06  4.93694365E-07
  6.57674099E-06 -1.84325684E-05  1.83658207E-05 -5.66311776E-06 -2.34113216E-05
 -1.78472444E-05  5.39563342E-05 -2.50000969E-05 -1.79721861E-03  2.11486352E-04
  4.93075256E-04 -1.23917614E-04  9.07632790E-06 -6.78275107E-07  6.33729840E-06
  1.29064416E-05 -2.37483494E-06  1.42049532E-06 -2.93723908E-06 -1.11810145E-05
 -1.16789770E-05 -5.87936368E-06 -1.75799433E-05  1.12936094E-05  2.03566866E-05
  2.05350831E-05  1.88627083E-04 -1.30647807E-04 -1.10986155E-04 -2.23285788E-05
  4.38477700E-03  4.81756082E-04  4.64917252E-04 -9.74306778E-04  7.57924047E-06
 -1.93498325E-06 -5.38730320E-06 -3.08078594E-06 -6.26213071E-06 -5.40278540E-07
  1.57427823E-06 -3.64600092E-06 -2.50598558E-06  3.46189441E-06 -7.77175353E-06
  2.24029014E-05  1.05003204E-05 -2.30782705E-05  5.71122112E-06 -4.83602382E-06
 -1.68970419E-05  4.31906492E-05 -1.28991688E-03  1.39278249E-03 -4.97214675E-04
  5.92804851E-05  7.38725402E-06  5.15872816E-06  4.72690351E-06  1.61882028E-06
  4.74363643E-06  3.84173868E-07 -1.13926323E-06  2.21192501E-06  3.61766791E-07
 -7.46391518E-07  1.08149780E-05 -1.10898898E-05 -6.29775236E-07 -1.42740801E-06
 -5.72473750E-05  7.84550407E-05 -1.79706764E-05 -5.61555443E-05 -1.86593365E-03
  3.54371263E-04 -1.99020664E-04  1.44738295E-04 -4.75130530E-06 -1.54168876E-06
  4.03887137E-06 -1.29410863E-06  2.05870861E-06 -3.17965270E-06  3.39061742E-05
  5.00821122E-05  2.86243723E-05 -6.82264878E-06  5.75387153E-07 -6.14680630E-06
  1.22350220E-05 -7.34652291E-05  8.10329607E-05  2.71142045E-04 -6.91237009E-06
  1.32919435E-05  9.81637262E-06  1.93844672E-06 -1.66622886E-05 -4.75508273E-05
 -1.13972896E-04  3.27196896E-08  1.03701603E-07 -8.41600768E-07  6.90709644E-06
 -4.12197181E-05  4.00765562E-05  1.47842780E-04  1.17456431E-05  2.26866328E-06
 -1.42337366E-05 -1.69057431E-06 -5.32791266E-05 -1.23830576E-04  1.65505962E-04
  6.18537686E-06  2.52213746E-06  1.50188185E-05  8.51846538E-06 -5.41574061E-05
 -4.71293758E-05  2.28738926E-05  3.35813227E-06  1.10432231E-05 -1.42810962E-05
 -6.46548763E-06  3.09590598E-05 -1.44153697E-04 -2.97511247E-04  1.50514757E-08
 -4.36860308E-06  7.22727396E-07  4.11609764E-01  6.54076295E-01  1.50033318E-02