(R)-3-chloro-1-butene tau=120                                           
SP        RB3LYP                                                      6-311++G(d,p)       
Number of atoms                            I               12
Info1-9                                    I   N=           9
          26          26           0           0           0         110
           1          18        -502
Full Title                                 C   N=           3
(R)-3-chloro-1-butene tau=120       
Route                                      C   N=           7
#P B3LYP/6-311++G** scf(conver=11) int=ultrafine polar=optro
t cphf(rdfreq,conver=11)
Charge                                     I                0
Multiplicity                               I                1
Number of electrons                        I               48
Number of alpha electrons                  I               24
Number of beta electrons                   I               24
Number of basis functions                  I              167
Number of independent functions            I              167
Number of point charges in /Mol/           I                0
Number of translation vectors              I                0
Atomic numbers                             I   N=          12
           6           6           6           6           1           1
           1           1           1           1           1          17
Nuclear charges                            R   N=          12
  6.00000000E+00  6.00000000E+00  6.00000000E+00  6.00000000E+00  1.00000000E+00
  1.00000000E+00  1.00000000E+00  1.00000000E+00  1.00000000E+00  1.00000000E+00
  1.00000000E+00  1.70000000E+01
Current cartesian coordinates              R   N=          36
  8.64812009E-01  3.31255169E+00  1.00615366E-01  4.54118257E-02  6.64385303E-01
 -6.46791346E-01 -2.29505209E+00 -1.90211490E-01  8.39600819E-01 -4.39965980E+00
 -9.42303952E-01 -3.20409864E-01 -4.65232496E+00 -1.05422102E+00 -2.35370089E+00
  2.57850521E+00  3.75323461E+00 -9.66193114E-01 -6.00771005E+00 -1.49207546E+00
  8.27646888E-01 -2.23547785E+00 -1.61419420E-01  2.89630588E+00 -2.86088873E-01
  5.99936296E-01 -2.68309743E+00  1.32002280E+00  3.47129410E+00  2.10743973E+00
 -5.70828794E-01  4.70979037E+00 -4.14127786E-01  2.62122534E+00 -1.58194522E+00
  4.39786396E-02
Number of symbols in /Mol/                 I                0
Force Field                                I                0
Atom Types                                 C   N=          12
                                                            
                                                            
                        
Int Atom Types                             I   N=          12
           0           0           0           0           0           0
           0           0           0           0           0           0
MM charges                                 R   N=          12
  0.00000000E+00  0.00000000E+00  0.00000000E+00  0.00000000E+00  0.00000000E+00
  0.00000000E+00  0.00000000E+00  0.00000000E+00  0.00000000E+00  0.00000000E+00
  0.00000000E+00  0.00000000E+00
Integer atomic weights                     I   N=          12
          12          12          12          12           1           1
           1           1           1           1           1          35
Real atomic weights                        R   N=          12
  1.20000000E+01  1.20000000E+01  1.20000000E+01  1.20000000E+01  1.00782504E+00
  1.00782504E+00  1.00782504E+00  1.00782504E+00  1.00782504E+00  1.00782504E+00
  1.00782504E+00  3.49688527E+01
Atom fragment info                         I   N=          12
           0           0           0           0           0           0
           0           0           0           0           0           0
Atom residue num                           I   N=          12
           0           0           0           0           0           0
           0           0           0           0           0           0
Nuclear spins                              I   N=          12
           0           0           0           0           1           1
           1           1           1           1           1           3
Nuclear ZEff                               R   N=          12
 -3.60000000E+00 -3.60000000E+00 -3.60000000E+00 -3.60000000E+00 -1.00000000E+00
 -1.00000000E+00 -1.00000000E+00 -1.00000000E+00 -1.00000000E+00 -1.00000000E+00
 -1.00000000E+00 -1.42400000E+01
Nuclear ZNuc                               R   N=          12
  6.00000000E+00  6.00000000E+00  6.00000000E+00  6.00000000E+00  1.00000000E+00
  1.00000000E+00  1.00000000E+00  1.00000000E+00  1.00000000E+00  1.00000000E+00
  1.00000000E+00  1.70000000E+01
Nuclear QMom                               R   N=          12
  0.00000000E+00  0.00000000E+00  0.00000000E+00  0.00000000E+00  0.00000000E+00
  0.00000000E+00  0.00000000E+00  0.00000000E+00  0.00000000E+00  0.00000000E+00
  0.00000000E+00 -8.16500000E+00
Nuclear GFac                               R   N=          12
  0.00000000E+00  0.00000000E+00  0.00000000E+00  0.00000000E+00  2.79284600E+00
  2.79284600E+00  2.79284600E+00  2.79284600E+00  2.79284600E+00  2.79284600E+00
  2.79284600E+00  8.21874000E-01
MicOpt                                     I   N=          12
          -1          -1          -1          -1          -1          -1
          -1          -1          -1          -1          -1          -1
Number of residues                         I                0
Number of secondary structures             I                0
SymInf integers                            I   N=          26
           1           1           1           1           1           0
           0           0           0           0           0           0
           0           0           0           0           0           0
           0           0           0           0           0           0
           0           0
RotTr to input orientation                 R   N=          12
  9.99997761E-01 -7.62404750E-04 -1.97382978E-03  7.54468058E-04  9.99991641E-01
 -4.01858771E-03  1.97687707E-03  4.01708952E-03  9.99989977E-01 -6.31382304E-04
  5.08559554E-04 -2.82879404E-04
Number of contracted shells                I               72
Number of primitive shells                 I              126
Pure/Cartesian d shells                    I                0
Pure/Cartesian f shells                    I                0
Highest angular momentum                   I                2
Largest degree of contraction              I                6
Shell types                                I   N=          72
           0          -1          -1          -1          -1          -2
           0          -1          -1          -1          -1          -2
           0          -1          -1          -1          -1          -2
           0          -1          -1          -1          -1          -2
           0           0           0           0           1           0
           0           0           0           1           0           0
           0           0           1           0           0           0
           0           1           0           0           0           0
           1           0           0           0           0           1
           0           0           0           0           1           0
           0           0           0           0           0          -1
           1           1           1           1           1          -2
Number of primitives per shell             I   N=          72
           6           3           1           1           1           1
           6           3           1           1           1           1
           6           3           1           1           1           1
           6           3           1           1           1           1
           3           1           1           1           1           3
           1           1           1           1           3           1
           1           1           1           3           1           1
           1           1           3           1           1           1
           1           3           1           1           1           1
           3           1           1           1           1           6
           3           1           1           1           1           1
           5           2           1           1           1           1
Shell to atom map                          I   N=          72
           1           1           1           1           1           1
           2           2           2           2           2           2
           3           3           3           3           3           3
           4           4           4           4           4           4
           5           5           5           5           5           6
           6           6           6           6           7           7
           7           7           7           8           8           8
           8           8           9           9           9           9
           9          10          10          10          10          10
          11          11          11          11          11          12
          12          12          12          12          12          12
          12          12          12          12          12          12
Primitive exponents                        R   N=         126
  4.56324000E+03  6.82024000E+02  1.54973000E+02  4.44553000E+01  1.30290000E+01
  1.82773000E+00  2.09642000E+01  4.80331000E+00  1.45933000E+00  4.83456000E-01
  1.45585000E-01  4.38000000E-02  6.26000000E-01  4.56324000E+03  6.82024000E+02
  1.54973000E+02  4.44553000E+01  1.30290000E+01  1.82773000E+00  2.09642000E+01
  4.80331000E+00  1.45933000E+00  4.83456000E-01  1.45585000E-01  4.38000000E-02
  6.26000000E-01  4.56324000E+03  6.82024000E+02  1.54973000E+02  4.44553000E+01
  1.30290000E+01  1.82773000E+00  2.09642000E+01  4.80331000E+00  1.45933000E+00
  4.83456000E-01  1.45585000E-01  4.38000000E-02  6.26000000E-01  4.56324000E+03
  6.82024000E+02  1.54973000E+02  4.44553000E+01  1.30290000E+01  1.82773000E+00
  2.09642000E+01  4.80331000E+00  1.45933000E+00  4.83456000E-01  1.45585000E-01
  4.38000000E-02  6.26000000E-01  3.38650000E+01  5.09479000E+00  1.15879000E+00
  3.25840000E-01  1.02741000E-01  3.60000000E-02  7.50000000E-01  3.38650000E+01
  5.09479000E+00  1.15879000E+00  3.25840000E-01  1.02741000E-01  3.60000000E-02
  7.50000000E-01  3.38650000E+01  5.09479000E+00  1.15879000E+00  3.25840000E-01
  1.02741000E-01  3.60000000E-02  7.50000000E-01  3.38650000E+01  5.09479000E+00
  1.15879000E+00  3.25840000E-01  1.02741000E-01  3.60000000E-02  7.50000000E-01
  3.38650000E+01  5.09479000E+00  1.15879000E+00  3.25840000E-01  1.02741000E-01
  3.60000000E-02  7.50000000E-01  3.38650000E+01  5.09479000E+00  1.15879000E+00
  3.25840000E-01  1.02741000E-01  3.60000000E-02  7.50000000E-01  3.38650000E+01
  5.09479000E+00  1.15879000E+00  3.25840000E-01  1.02741000E-01  3.60000000E-02
  7.50000000E-01  1.05819000E+05  1.58720000E+04  3.61965000E+03  1.03080000E+03
  3.39908000E+02  1.24538000E+02  1.24538000E+02  4.95135000E+01  2.08056000E+01
  6.58346000E+00  2.56468000E+00  5.59763000E-01  1.83273000E-01  4.83000000E-02
  5.89776000E+02  1.39849000E+02  4.51413000E+01  1.68733000E+01  2.77152000E+00
  6.74110000E+00  2.77152000E+00  1.02387000E+00  3.81368000E-01  1.09437000E-01
  7.50000000E-01
Contraction coefficients                   R   N=         126
  1.96665025E-03  1.52306019E-02  7.61269097E-02  2.60801033E-01  6.16462078E-01
  2.21006028E-01  1.14660081E-01  9.19999648E-01 -3.03068213E-03  1.00000000E+00
  1.00000000E+00  1.00000000E+00  1.00000000E+00  1.96665025E-03  1.52306019E-02
  7.61269097E-02  2.60801033E-01  6.16462078E-01  2.21006028E-01  1.14660081E-01
  9.19999648E-01 -3.03068213E-03  1.00000000E+00  1.00000000E+00  1.00000000E+00
  1.00000000E+00  1.96665025E-03  1.52306019E-02  7.61269097E-02  2.60801033E-01
  6.16462078E-01  2.21006028E-01  1.14660081E-01  9.19999648E-01 -3.03068213E-03
  1.00000000E+00  1.00000000E+00  1.00000000E+00  1.00000000E+00  1.96665025E-03
  1.52306019E-02  7.61269097E-02  2.60801033E-01  6.16462078E-01  2.21006028E-01
  1.14660081E-01  9.19999648E-01 -3.03068213E-03  1.00000000E+00  1.00000000E+00
  1.00000000E+00  1.00000000E+00  2.54938145E-02  1.90373109E-01  8.52161486E-01
  1.00000000E+00  1.00000000E+00  1.00000000E+00  1.00000000E+00  2.54938145E-02
  1.90373109E-01  8.52161486E-01  1.00000000E+00  1.00000000E+00  1.00000000E+00
  1.00000000E+00  2.54938145E-02  1.90373109E-01  8.52161486E-01  1.00000000E+00
  1.00000000E+00  1.00000000E+00  1.00000000E+00  2.54938145E-02  1.90373109E-01
  8.52161486E-01  1.00000000E+00  1.00000000E+00  1.00000000E+00  1.00000000E+00
  2.54938145E-02  1.90373109E-01  8.52161486E-01  1.00000000E+00  1.00000000E+00
  1.00000000E+00  1.00000000E+00  2.54938145E-02  1.90373109E-01  8.52161486E-01
  1.00000000E+00  1.00000000E+00  1.00000000E+00  1.00000000E+00  2.54938145E-02
  1.90373109E-01  8.52161486E-01  1.00000000E+00  1.00000000E+00  1.00000000E+00
  1.00000000E+00  7.38000247E-04  5.71800191E-03  2.94950099E-02  1.17286039E-01
  3.62949121E-01  5.84149195E-01  1.34176973E-01  6.24249876E-01  2.91755942E-01
  1.00000000E+00  1.00000000E+00  1.00000000E+00  1.00000000E+00  1.00000000E+00
  3.66556935E-03  2.83679194E-02  1.24756603E-01  3.39654631E-01  7.47585963E-01
 -1.57224381E+00  9.92388882E-01  1.00000000E+00  1.00000000E+00  1.00000000E+00
  1.00000000E+00
P(S=P) Contraction coefficients            R   N=         126
  0.00000000E+00  0.00000000E+00  0.00000000E+00  0.00000000E+00  0.00000000E+00
  0.00000000E+00  4.02486927E-02  2.37593957E-01  8.15853851E-01  1.00000000E+00
  1.00000000E+00  1.00000000E+00  0.00000000E+00  0.00000000E+00  0.00000000E+00
  0.00000000E+00  0.00000000E+00  0.00000000E+00  0.00000000E+00  4.02486927E-02
  2.37593957E-01  8.15853851E-01  1.00000000E+00  1.00000000E+00  1.00000000E+00
  0.00000000E+00  0.00000000E+00  0.00000000E+00  0.00000000E+00  0.00000000E+00
  0.00000000E+00  0.00000000E+00  4.02486927E-02  2.37593957E-01  8.15853851E-01
  1.00000000E+00  1.00000000E+00  1.00000000E+00  0.00000000E+00  0.00000000E+00
  0.00000000E+00  0.00000000E+00  0.00000000E+00  0.00000000E+00  0.00000000E+00
  4.02486927E-02  2.37593957E-01  8.15853851E-01  1.00000000E+00  1.00000000E+00
  1.00000000E+00  0.00000000E+00  0.00000000E+00  0.00000000E+00  0.00000000E+00
  0.00000000E+00  0.00000000E+00  0.00000000E+00  0.00000000E+00  0.00000000E+00
  0.00000000E+00  0.00000000E+00  0.00000000E+00  0.00000000E+00  0.00000000E+00
  0.00000000E+00  0.00000000E+00  0.00000000E+00  0.00000000E+00  0.00000000E+00
  0.00000000E+00  0.00000000E+00  0.00000000E+00  0.00000000E+00  0.00000000E+00
  0.00000000E+00  0.00000000E+00  0.00000000E+00  0.00000000E+00  0.00000000E+00
  0.00000000E+00  0.00000000E+00  0.00000000E+00  0.00000000E+00  0.00000000E+00
  0.00000000E+00  0.00000000E+00  0.00000000E+00  0.00000000E+00  0.00000000E+00
  0.00000000E+00  0.00000000E+00  0.00000000E+00  0.00000000E+00  0.00000000E+00
  0.00000000E+00  0.00000000E+00  0.00000000E+00  0.00000000E+00  0.00000000E+00
  0.00000000E+00  0.00000000E+00  0.00000000E+00  0.00000000E+00  0.00000000E+00
  0.00000000E+00  0.00000000E+00  0.00000000E+00  0.00000000E+00  0.00000000E+00
  0.00000000E+00  0.00000000E+00  0.00000000E+00  0.00000000E+00  1.00000000E+00
  0.00000000E+00  0.00000000E+00  0.00000000E+00  0.00000000E+00  0.00000000E+00
  0.00000000E+00  0.00000000E+00  0.00000000E+00  0.00000000E+00  0.00000000E+00
  0.00000000E+00
Coordinates of each shell                  R   N=         216
  8.64812009E-01  3.31255169E+00  1.00615366E-01  8.64812009E-01  3.31255169E+00
  1.00615366E-01  8.64812009E-01  3.31255169E+00  1.00615366E-01  8.64812009E-01
  3.31255169E+00  1.00615366E-01  8.64812009E-01  3.31255169E+00  1.00615366E-01
  8.64812009E-01  3.31255169E+00  1.00615366E-01  4.54118257E-02  6.64385303E-01
 -6.46791346E-01  4.54118257E-02  6.64385303E-01 -6.46791346E-01  4.54118257E-02
  6.64385303E-01 -6.46791346E-01  4.54118257E-02  6.64385303E-01 -6.46791346E-01
  4.54118257E-02  6.64385303E-01 -6.46791346E-01  4.54118257E-02  6.64385303E-01
 -6.46791346E-01 -2.29505209E+00 -1.90211490E-01  8.39600819E-01 -2.29505209E+00
 -1.90211490E-01  8.39600819E-01 -2.29505209E+00 -1.90211490E-01  8.39600819E-01
 -2.29505209E+00 -1.90211490E-01  8.39600819E-01 -2.29505209E+00 -1.90211490E-01
  8.39600819E-01 -2.29505209E+00 -1.90211490E-01  8.39600819E-01 -4.39965980E+00
 -9.42303952E-01 -3.20409864E-01 -4.39965980E+00 -9.42303952E-01 -3.20409864E-01
 -4.39965980E+00 -9.42303952E-01 -3.20409864E-01 -4.39965980E+00 -9.42303952E-01
 -3.20409864E-01 -4.39965980E+00 -9.42303952E-01 -3.20409864E-01 -4.39965980E+00
 -9.42303952E-01 -3.20409864E-01 -4.65232496E+00 -1.05422102E+00 -2.35370089E+00
 -4.65232496E+00 -1.05422102E+00 -2.35370089E+00 -4.65232496E+00 -1.05422102E+00
 -2.35370089E+00 -4.65232496E+00 -1.05422102E+00 -2.35370089E+00 -4.65232496E+00
 -1.05422102E+00 -2.35370089E+00  2.57850521E+00  3.75323461E+00 -9.66193114E-01
  2.57850521E+00  3.75323461E+00 -9.66193114E-01  2.57850521E+00  3.75323461E+00
 -9.66193114E-01  2.57850521E+00  3.75323461E+00 -9.66193114E-01  2.57850521E+00
  3.75323461E+00 -9.66193114E-01 -6.00771005E+00 -1.49207546E+00  8.27646888E-01
 -6.00771005E+00 -1.49207546E+00  8.27646888E-01 -6.00771005E+00 -1.49207546E+00
  8.27646888E-01 -6.00771005E+00 -1.49207546E+00  8.27646888E-01 -6.00771005E+00
 -1.49207546E+00  8.27646888E-01 -2.23547785E+00 -1.61419420E-01  2.89630588E+00
 -2.23547785E+00 -1.61419420E-01  2.89630588E+00 -2.23547785E+00 -1.61419420E-01
  2.89630588E+00 -2.23547785E+00 -1.61419420E-01  2.89630588E+00 -2.23547785E+00
 -1.61419420E-01  2.89630588E+00 -2.86088873E-01  5.99936296E-01 -2.68309743E+00
 -2.86088873E-01  5.99936296E-01 -2.68309743E+00 -2.86088873E-01  5.99936296E-01
 -2.68309743E+00 -2.86088873E-01  5.99936296E-01 -2.68309743E+00 -2.86088873E-01
  5.99936296E-01 -2.68309743E+00  1.32002280E+00  3.47129410E+00  2.10743973E+00
  1.32002280E+00  3.47129410E+00  2.10743973E+00  1.32002280E+00  3.47129410E+00
  2.10743973E+00  1.32002280E+00  3.47129410E+00  2.10743973E+00  1.32002280E+00
  3.47129410E+00  2.10743973E+00 -5.70828794E-01  4.70979037E+00 -4.14127786E-01
 -5.70828794E-01  4.70979037E+00 -4.14127786E-01 -5.70828794E-01  4.70979037E+00
 -4.14127786E-01 -5.70828794E-01  4.70979037E+00 -4.14127786E-01 -5.70828794E-01
  4.70979037E+00 -4.14127786E-01  2.62122534E+00 -1.58194522E+00  4.39786396E-02
  2.62122534E+00 -1.58194522E+00  4.39786396E-02  2.62122534E+00 -1.58194522E+00
  4.39786396E-02  2.62122534E+00 -1.58194522E+00  4.39786396E-02  2.62122534E+00
 -1.58194522E+00  4.39786396E-02  2.62122534E+00 -1.58194522E+00  4.39786396E-02
  2.62122534E+00 -1.58194522E+00  4.39786396E-02  2.62122534E+00 -1.58194522E+00
  4.39786396E-02  2.62122534E+00 -1.58194522E+00  4.39786396E-02  2.62122534E+00
 -1.58194522E+00  4.39786396E-02  2.62122534E+00 -1.58194522E+00  4.39786396E-02
  2.62122534E+00 -1.58194522E+00  4.39786396E-02  2.62122534E+00 -1.58194522E+00
  4.39786396E-02
Constraint Structure                       R   N=          36
  8.64812009E-01  3.31255169E+00  1.00615366E-01  4.54118257E-02  6.64385303E-01
 -6.46791346E-01 -2.29505209E+00 -1.90211490E-01  8.39600819E-01 -4.39965980E+00
 -9.42303952E-01 -3.20409864E-01 -4.65232496E+00 -1.05422102E+00 -2.35370089E+00
  2.57850521E+00  3.75323461E+00 -9.66193114E-01 -6.00771005E+00 -1.49207546E+00
  8.27646888E-01 -2.23547785E+00 -1.61419420E-01  2.89630588E+00 -2.86088873E-01
  5.99936296E-01 -2.68309743E+00  1.32002280E+00  3.47129410E+00  2.10743973E+00
 -5.70828794E-01  4.70979037E+00 -4.14127786E-01  2.62122534E+00 -1.58194522E+00
  4.39786396E-02
Num ILSW                                   I              100
ILSW                                       I   N=         100
           0           0           0           0           2           0
           0           0           0           0         402          -1
           5           0           0           0           0           0
           0           0           0           0           0           0
           1           0           0           0           0           0
           0           0      100000           0          -1           0
           0           0           0           0           0           0
           0           0           0           1           0           0
           0           0           1           0           0           0
           0           0           4          41           0           0
           0           0           5           0           0           0
           0           0           0           0           0           0
           0           0           0           0           0           0
           0           0           0           0           0           0
           0           0           0           0           0           0
           0           0           0           0           0           0
           0           0           0           0
Num RLSW                                   I               41
RLSW                                       R   N=          41
  8.00000000E-01  7.20000000E-01  1.00000000E+00  8.10000000E-01  2.00000000E-01
  0.00000000E+00  0.00000000E+00  1.00000000E+00  0.00000000E+00  0.00000000E+00
  0.00000000E+00  0.00000000E+00  1.00000000E+00  0.00000000E+00  0.00000000E+00
  0.00000000E+00  0.00000000E+00  1.00000000E+00  0.00000000E+00  0.00000000E+00
  0.00000000E+00  0.00000000E+00  1.00000000E+00  0.00000000E+00  0.00000000E+00
  0.00000000E+00  0.00000000E+00  1.00000000E+00  0.00000000E+00  0.00000000E+00
  0.00000000E+00  0.00000000E+00  0.00000000E+00  0.00000000E+00  0.00000000E+00
  0.00000000E+00  0.00000000E+00  0.00000000E+00  1.00000000E+00  1.00000000E+00
  0.00000000E+00
MxBond                                     I                4
NBond                                      I   N=          12
           4           4           3           3           1           1
           1           1           1           1           1           1
IBond                                      I   N=          48
           2           6          10          11           1           3
           9          12           2           4           8           0
           3           5           7           0           4           0
           0           0           1           0           0           0
           4           0           0           0           3           0
           0           0           2           0           0           0
           1           0           0           0           1           0
           0           0           2           0           0           0
RBond                                      R   N=          48
  1.00000000E+00  1.00000000E+00  1.00000000E+00  1.00000000E+00  1.00000000E+00
  1.00000000E+00  1.00000000E+00  1.00000000E+00  1.00000000E+00  2.00000000E+00
  1.00000000E+00  0.00000000E+00  2.00000000E+00  1.00000000E+00  1.00000000E+00
  0.00000000E+00  1.00000000E+00  0.00000000E+00  0.00000000E+00  0.00000000E+00
  1.00000000E+00  0.00000000E+00  0.00000000E+00  0.00000000E+00  1.00000000E+00
  0.00000000E+00  0.00000000E+00  0.00000000E+00  1.00000000E+00  0.00000000E+00
  0.00000000E+00  0.00000000E+00  1.00000000E+00  0.00000000E+00  0.00000000E+00
  0.00000000E+00  1.00000000E+00  0.00000000E+00  0.00000000E+00  0.00000000E+00
  1.00000000E+00  0.00000000E+00  0.00000000E+00  0.00000000E+00  1.00000000E+00
  0.00000000E+00  0.00000000E+00  0.00000000E+00
Virial Ratio                               R      2.003164569522967E+00
SCF Energy                                 R     -6.168930342252806E+02
Total Energy                               R     -6.168930342252806E+02
RMS Density                                R      7.088915135120787E-12
Nuclear derivative order                   I                0
External E-field                           R   N=          35
  0.00000000E+00  0.00000000E+00  0.00000000E+00  0.00000000E+00  0.00000000E+00
  0.00000000E+00  0.00000000E+00  0.00000000E+00  0.00000000E+00  0.00000000E+00
  0.00000000E+00  0.00000000E+00  0.00000000E+00  0.00000000E+00  0.00000000E+00
  0.00000000E+00  0.00000000E+00  0.00000000E+00  0.00000000E+00  0.00000000E+00
  0.00000000E+00  0.00000000E+00  0.00000000E+00  0.00000000E+00  0.00000000E+00
  0.00000000E+00  0.00000000E+00  0.00000000E+00  0.00000000E+00  0.00000000E+00
  0.00000000E+00  0.00000000E+00  0.00000000E+00  0.00000000E+00  0.00000000E+00
IOpCl                                      I                0
IROHF                                      I                0
Alpha Orbital Energies                     R   N=         167
 -1.01536293E+02 -1.02499891E+01 -1.01955661E+01 -1.01817208E+01 -1.01798927E+01
 -9.45065844E+00 -7.21505198E+00 -7.20555690E+00 -7.20538928E+00 -8.65774833E-01
 -7.84910566E-01 -7.42582087E-01 -6.33522935E-01 -5.76963895E-01 -4.82063056E-01
 -4.76765474E-01 -4.43333990E-01 -4.14091843E-01 -4.02952900E-01 -3.79739726E-01
 -3.60749068E-01 -3.06030107E-01 -2.99997966E-01 -2.79345967E-01 -2.86724857E-02
 -7.72045608E-03  6.50317591E-03  6.78473576E-03  2.04891786E-02  2.82169686E-02
  3.94113825E-02  4.01834248E-02  6.38846512E-02  6.41496027E-02  7.26700809E-02
  8.31922367E-02  8.63920552E-02  9.93973202E-02  1.10825863E-01  1.15816742E-01
  1.18731096E-01  1.20986036E-01  1.28593607E-01  1.30300385E-01  1.36305845E-01
  1.41810766E-01  1.50547685E-01  1.57192147E-01  1.58838747E-01  1.64590411E-01
  1.71909367E-01  1.88128271E-01  1.91943432E-01  2.13126849E-01  2.19775579E-01
  2.23099087E-01  2.41917012E-01  2.51010238E-01  2.70451113E-01  2.94184342E-01
  3.42416235E-01  3.54003925E-01  3.88486553E-01  4.25992729E-01  4.31591395E-01
  4.50350473E-01  4.60720822E-01  4.80093987E-01  4.88228264E-01  4.95346093E-01
  5.20532483E-01  5.28140382E-01  5.60414736E-01  5.85334523E-01  5.98688125E-01
  6.24704232E-01  6.34215075E-01  6.49144463E-01  6.58734263E-01  6.62661092E-01
  6.91746401E-01  7.00877210E-01  7.31569966E-01  7.39949065E-01  7.79780701E-01
  8.18243997E-01  8.36967634E-01  8.62271023E-01  8.90210428E-01  9.05608480E-01
  9.40564247E-01  9.57971242E-01  1.00318874E+00  1.02272283E+00  1.06063512E+00
  1.08398936E+00  1.12478381E+00  1.15652917E+00  1.20231473E+00  1.29493889E+00
  1.39118328E+00  1.43931144E+00  1.44920154E+00  1.45712803E+00  1.50878678E+00
  1.53529074E+00  1.55810504E+00  1.58434394E+00  1.59589415E+00  1.62173072E+00
  1.66650921E+00  1.68239099E+00  1.70084779E+00  1.72138606E+00  1.78166432E+00
  1.78821948E+00  1.87692755E+00  1.88946973E+00  1.93412274E+00  1.97254804E+00
  2.01513106E+00  2.07282960E+00  2.11875895E+00  2.17068441E+00  2.18786391E+00
  2.19444754E+00  2.25466227E+00  2.28621394E+00  2.29121937E+00  2.34258958E+00
  2.37435258E+00  2.45190912E+00  2.45976070E+00  2.50074944E+00  2.53308536E+00
  2.56360832E+00  2.57305658E+00  2.58697452E+00  2.59675010E+00  2.63183203E+00
  2.72877286E+00  2.73565474E+00  2.73900840E+00  2.75788813E+00  2.84717975E+00
  2.87216470E+00  2.92725467E+00  3.05014478E+00  3.08642066E+00  3.17532944E+00
  3.39655073E+00  3.48471451E+00  3.71707950E+00  3.79083478E+00  3.79880925E+00
  3.95243768E+00  4.11103754E+00  4.25679136E+00  9.75674238E+00  2.37299865E+01
  2.37493037E+01  2.39443938E+01  2.42470597E+01  2.59311910E+01  2.59644357E+01
  2.64465646E+01  2.15746574E+02
Alpha MO coefficients                      R   N=       27889
  2.19845031E-07 -4.90634365E-07 -2.65201677E-06 -2.38993905E-06 -1.11123038E-06
  4.92441682E-07  1.93804324E-05  1.65106328E-05  8.27046903E-06  7.22545489E-06
  3.54265119E-05  3.52552025E-05  1.33173207E-05 -1.78317410E-03 -1.51996063E-04
  5.45795507E-04  4.40184358E-05  6.66304003E-06 -2.99186739E-06 -4.00304335E-06
  1.43867009E-05 -1.05319933E-06  1.59443170E-06 -3.35976793E-06  1.24667350E-05
 -1.24012629E-05  6.20596725E-06 -1.29850474E-05 -1.43282254E-05  2.03359667E-05
 -2.47474887E-05  1.70129232E-04  1.32599778E-04 -1.12946118E-04  1.11238880E-05
  3.66287171E-03 -4.45145134E-04  4.84871966E-04  8.95614908E-04  1.34573700E-05
 -1.50761412E-06  4.22371427E-06 -3.82530048E-06  7.75835678E-06 -6.27341415E-07
  1.82983995E-06  3.76508748E-06 -2.48216992E-06 -4.15155869E-06 -8.14387337E-06
 -2.19194003E-05  9.89482433E-06  2.45524540E-05  1.43696904E-05  5.87326084E-07
 -1.80241253E-05 -7.64316588E-05 -1.03858879E-03 -1.16363009E-03 -3.55325039E-04
 -1.25739356E-04  6.05692329E-06  3.62870478E-06 -6.16905458E-06  6.25272729E-07
 -4.65064883E-06  3.47906637E-07 -1.02460503E-06 -1.78074776E-06  6.07802999E-07
  6.72059122E-07  1.03857995E-05  9.87686129E-06 -1.79864125E-06  2.44478702E-06
 -7.58724232E-05 -8.86362251E-05 -2.04129372E-05  6.04774255E-05 -1.60332722E-03
 -3.24804875E-04 -1.81320322E-04 -1.30870748E-04 -5.69550840E-06 -1.46040175E-06
 -3.40366631E-06 -1.78315265E-06 -1.27468880E-06 -3.47863555E-06  3.80583060E-05
  5.54032423E-05  3.12684272E-05  7.59840186E-06 -3.85325902E-09  7.04049992E-06
  1.26255754E-05 -8.76422707E-05  7.89840846E-05  2.28715913E-04  8.99740707E-06
  1.29926705E-05 -1.06244987E-05  1.93647267E-06 -1.82946928E-05 -5.16044982E-05
 -1.31448566E-04 -1.49262834E-07 -1.03728885E-08  1.25315566E-06  4.57179177E-06
 -2.44495110E-05  7.04019615E-05  1.60241100E-04 -9.72431153E-06  2.40091608E-06
  1.18281367E-05 -9.27533306E-07 -6.40768764E-05 -9.43504099E-05  1.82653307E-04
 -1.03455221E-05  4.01619957E-06 -1.94845644E-05  9.85216323E-06 -6.05657417E-05
 -1.39835203E-05  7.77964502E-05 -4.36023080E-06  1.22352461E-05  1.46952454E-05
 -7.23194108E-06  3.25954041E-05 -1.36540840E-04 -3.19122695E-04 -6.66477290E-07
 -3.49050190E-06 -4.82333619E-07  4.11609715E-01  6.54076107E-01  1.50042532E-02