(R)-3-chloro-1-butene tau=120                                           
SP        RB3LYP                                                      6-311++G(d,p)       
Number of atoms                            I               12
Info1-9                                    I   N=           9
          26          26           0           0           0         110
           1          18        -502
Full Title                                 C   N=           3
(R)-3-chloro-1-butene tau=120       
Route                                      C   N=           7
#P B3LYP/6-311++G** scf(conver=11) int=ultrafine polar=optro
t cphf(rdfreq,conver=11)
Charge                                     I                0
Multiplicity                               I                1
Number of electrons                        I               48
Number of alpha electrons                  I               24
Number of beta electrons                   I               24
Number of basis functions                  I              167
Number of independent functions            I              167
Number of point charges in /Mol/           I                0
Number of translation vectors              I                0
Atomic numbers                             I   N=          12
           6           6           6           6           1           1
           1           1           1           1           1          17
Nuclear charges                            R   N=          12
  6.00000000E+00  6.00000000E+00  6.00000000E+00  6.00000000E+00  1.00000000E+00
  1.00000000E+00  1.00000000E+00  1.00000000E+00  1.00000000E+00  1.00000000E+00
  1.00000000E+00  1.70000000E+01
Current cartesian coordinates              R   N=          36
  8.74109647E-01  3.31519764E+00  8.47135504E-02  1.76993832E-02  6.68857526E-01
 -6.13272674E-01 -2.30166689E+00 -1.96919697E-01  8.01012563E-01 -4.41382310E+00
 -9.51733038E-01 -3.09139296E-01 -4.47284238E+00 -1.00814397E+00 -2.35989759E+00
  2.58339964E+00  3.83281877E+00 -9.47801515E-01 -5.97501945E+00 -1.47701883E+00
  9.11557514E-01 -2.08613168E+00 -1.05446905E-01  2.84394389E+00 -3.31622810E-01
  4.67437326E-01 -2.63424914E+00  1.29146014E+00  3.44422540E+00  2.10191101E+00
 -6.09281536E-01  4.66124290E+00 -4.27967704E-01  2.62012493E+00 -1.57808996E+00
  4.30952165E-02
Number of symbols in /Mol/                 I                0
Force Field                                I                0
Atom Types                                 C   N=          12
                                                            
                                                            
                        
Int Atom Types                             I   N=          12
           0           0           0           0           0           0
           0           0           0           0           0           0
MM charges                                 R   N=          12
  0.00000000E+00  0.00000000E+00  0.00000000E+00  0.00000000E+00  0.00000000E+00
  0.00000000E+00  0.00000000E+00  0.00000000E+00  0.00000000E+00  0.00000000E+00
  0.00000000E+00  0.00000000E+00
Integer atomic weights                     I   N=          12
          12          12          12          12           1           1
           1           1           1           1           1          35
Real atomic weights                        R   N=          12
  1.20000000E+01  1.20000000E+01  1.20000000E+01  1.20000000E+01  1.00782504E+00
  1.00782504E+00  1.00782504E+00  1.00782504E+00  1.00782504E+00  1.00782504E+00
  1.00782504E+00  3.49688527E+01
Atom fragment info                         I   N=          12
           0           0           0           0           0           0
           0           0           0           0           0           0
Atom residue num                           I   N=          12
           0           0           0           0           0           0
           0           0           0           0           0           0
Nuclear spins                              I   N=          12
           0           0           0           0           1           1
           1           1           1           1           1           3
Nuclear ZEff                               R   N=          12
 -3.60000000E+00 -3.60000000E+00 -3.60000000E+00 -3.60000000E+00 -1.00000000E+00
 -1.00000000E+00 -1.00000000E+00 -1.00000000E+00 -1.00000000E+00 -1.00000000E+00
 -1.00000000E+00 -1.42400000E+01
Nuclear ZNuc                               R   N=          12
  6.00000000E+00  6.00000000E+00  6.00000000E+00  6.00000000E+00  1.00000000E+00
  1.00000000E+00  1.00000000E+00  1.00000000E+00  1.00000000E+00  1.00000000E+00
  1.00000000E+00  1.70000000E+01
Nuclear QMom                               R   N=          12
  0.00000000E+00  0.00000000E+00  0.00000000E+00  0.00000000E+00  0.00000000E+00
  0.00000000E+00  0.00000000E+00  0.00000000E+00  0.00000000E+00  0.00000000E+00
  0.00000000E+00 -8.16500000E+00
Nuclear GFac                               R   N=          12
  0.00000000E+00  0.00000000E+00  0.00000000E+00  0.00000000E+00  2.79284600E+00
  2.79284600E+00  2.79284600E+00  2.79284600E+00  2.79284600E+00  2.79284600E+00
  2.79284600E+00  8.21874000E-01
MicOpt                                     I   N=          12
          -1          -1          -1          -1          -1          -1
          -1          -1          -1          -1          -1          -1
Number of residues                         I                0
Number of secondary structures             I                0
SymInf integers                            I   N=          26
           1           1           1           1           1           0
           0           0           0           0           0           0
           0           0           0           0           0           0
           0           0           0           0           0           0
           0           0
RotTr to input orientation                 R   N=          12
  9.99997333E-01 -1.94295431E-03 -1.24892982E-03  1.94074532E-03  9.99996555E-01
 -1.76749595E-03  1.25235968E-03  1.76506738E-03  9.99997658E-01  2.33280549E-03
  5.14866908E-04  7.13323191E-04
Number of contracted shells                I               72
Number of primitive shells                 I              126
Pure/Cartesian d shells                    I                0
Pure/Cartesian f shells                    I                0
Highest angular momentum                   I                2
Largest degree of contraction              I                6
Shell types                                I   N=          72
           0          -1          -1          -1          -1          -2
           0          -1          -1          -1          -1          -2
           0          -1          -1          -1          -1          -2
           0          -1          -1          -1          -1          -2
           0           0           0           0           1           0
           0           0           0           1           0           0
           0           0           1           0           0           0
           0           1           0           0           0           0
           1           0           0           0           0           1
           0           0           0           0           1           0
           0           0           0           0           0          -1
           1           1           1           1           1          -2
Number of primitives per shell             I   N=          72
           6           3           1           1           1           1
           6           3           1           1           1           1
           6           3           1           1           1           1
           6           3           1           1           1           1
           3           1           1           1           1           3
           1           1           1           1           3           1
           1           1           1           3           1           1
           1           1           3           1           1           1
           1           3           1           1           1           1
           3           1           1           1           1           6
           3           1           1           1           1           1
           5           2           1           1           1           1
Shell to atom map                          I   N=          72
           1           1           1           1           1           1
           2           2           2           2           2           2
           3           3           3           3           3           3
           4           4           4           4           4           4
           5           5           5           5           5           6
           6           6           6           6           7           7
           7           7           7           8           8           8
           8           8           9           9           9           9
           9          10          10          10          10          10
          11          11          11          11          11          12
          12          12          12          12          12          12
          12          12          12          12          12          12
Primitive exponents                        R   N=         126
  4.56324000E+03  6.82024000E+02  1.54973000E+02  4.44553000E+01  1.30290000E+01
  1.82773000E+00  2.09642000E+01  4.80331000E+00  1.45933000E+00  4.83456000E-01
  1.45585000E-01  4.38000000E-02  6.26000000E-01  4.56324000E+03  6.82024000E+02
  1.54973000E+02  4.44553000E+01  1.30290000E+01  1.82773000E+00  2.09642000E+01
  4.80331000E+00  1.45933000E+00  4.83456000E-01  1.45585000E-01  4.38000000E-02
  6.26000000E-01  4.56324000E+03  6.82024000E+02  1.54973000E+02  4.44553000E+01
  1.30290000E+01  1.82773000E+00  2.09642000E+01  4.80331000E+00  1.45933000E+00
  4.83456000E-01  1.45585000E-01  4.38000000E-02  6.26000000E-01  4.56324000E+03
  6.82024000E+02  1.54973000E+02  4.44553000E+01  1.30290000E+01  1.82773000E+00
  2.09642000E+01  4.80331000E+00  1.45933000E+00  4.83456000E-01  1.45585000E-01
  4.38000000E-02  6.26000000E-01  3.38650000E+01  5.09479000E+00  1.15879000E+00
  3.25840000E-01  1.02741000E-01  3.60000000E-02  7.50000000E-01  3.38650000E+01
  5.09479000E+00  1.15879000E+00  3.25840000E-01  1.02741000E-01  3.60000000E-02
  7.50000000E-01  3.38650000E+01  5.09479000E+00  1.15879000E+00  3.25840000E-01
  1.02741000E-01  3.60000000E-02  7.50000000E-01  3.38650000E+01  5.09479000E+00
  1.15879000E+00  3.25840000E-01  1.02741000E-01  3.60000000E-02  7.50000000E-01
  3.38650000E+01  5.09479000E+00  1.15879000E+00  3.25840000E-01  1.02741000E-01
  3.60000000E-02  7.50000000E-01  3.38650000E+01  5.09479000E+00  1.15879000E+00
  3.25840000E-01  1.02741000E-01  3.60000000E-02  7.50000000E-01  3.38650000E+01
  5.09479000E+00  1.15879000E+00  3.25840000E-01  1.02741000E-01  3.60000000E-02
  7.50000000E-01  1.05819000E+05  1.58720000E+04  3.61965000E+03  1.03080000E+03
  3.39908000E+02  1.24538000E+02  1.24538000E+02  4.95135000E+01  2.08056000E+01
  6.58346000E+00  2.56468000E+00  5.59763000E-01  1.83273000E-01  4.83000000E-02
  5.89776000E+02  1.39849000E+02  4.51413000E+01  1.68733000E+01  2.77152000E+00
  6.74110000E+00  2.77152000E+00  1.02387000E+00  3.81368000E-01  1.09437000E-01
  7.50000000E-01
Contraction coefficients                   R   N=         126
  1.96665025E-03  1.52306019E-02  7.61269097E-02  2.60801033E-01  6.16462078E-01
  2.21006028E-01  1.14660081E-01  9.19999648E-01 -3.03068213E-03  1.00000000E+00
  1.00000000E+00  1.00000000E+00  1.00000000E+00  1.96665025E-03  1.52306019E-02
  7.61269097E-02  2.60801033E-01  6.16462078E-01  2.21006028E-01  1.14660081E-01
  9.19999648E-01 -3.03068213E-03  1.00000000E+00  1.00000000E+00  1.00000000E+00
  1.00000000E+00  1.96665025E-03  1.52306019E-02  7.61269097E-02  2.60801033E-01
  6.16462078E-01  2.21006028E-01  1.14660081E-01  9.19999648E-01 -3.03068213E-03
  1.00000000E+00  1.00000000E+00  1.00000000E+00  1.00000000E+00  1.96665025E-03
  1.52306019E-02  7.61269097E-02  2.60801033E-01  6.16462078E-01  2.21006028E-01
  1.14660081E-01  9.19999648E-01 -3.03068213E-03  1.00000000E+00  1.00000000E+00
  1.00000000E+00  1.00000000E+00  2.54938145E-02  1.90373109E-01  8.52161486E-01
  1.00000000E+00  1.00000000E+00  1.00000000E+00  1.00000000E+00  2.54938145E-02
  1.90373109E-01  8.52161486E-01  1.00000000E+00  1.00000000E+00  1.00000000E+00
  1.00000000E+00  2.54938145E-02  1.90373109E-01  8.52161486E-01  1.00000000E+00
  1.00000000E+00  1.00000000E+00  1.00000000E+00  2.54938145E-02  1.90373109E-01
  8.52161486E-01  1.00000000E+00  1.00000000E+00  1.00000000E+00  1.00000000E+00
  2.54938145E-02  1.90373109E-01  8.52161486E-01  1.00000000E+00  1.00000000E+00
  1.00000000E+00  1.00000000E+00  2.54938145E-02  1.90373109E-01  8.52161486E-01
  1.00000000E+00  1.00000000E+00  1.00000000E+00  1.00000000E+00  2.54938145E-02
  1.90373109E-01  8.52161486E-01  1.00000000E+00  1.00000000E+00  1.00000000E+00
  1.00000000E+00  7.38000247E-04  5.71800191E-03  2.94950099E-02  1.17286039E-01
  3.62949121E-01  5.84149195E-01  1.34176973E-01  6.24249876E-01  2.91755942E-01
  1.00000000E+00  1.00000000E+00  1.00000000E+00  1.00000000E+00  1.00000000E+00
  3.66556935E-03  2.83679194E-02  1.24756603E-01  3.39654631E-01  7.47585963E-01
 -1.57224381E+00  9.92388882E-01  1.00000000E+00  1.00000000E+00  1.00000000E+00
  1.00000000E+00
P(S=P) Contraction coefficients            R   N=         126
  0.00000000E+00  0.00000000E+00  0.00000000E+00  0.00000000E+00  0.00000000E+00
  0.00000000E+00  4.02486927E-02  2.37593957E-01  8.15853851E-01  1.00000000E+00
  1.00000000E+00  1.00000000E+00  0.00000000E+00  0.00000000E+00  0.00000000E+00
  0.00000000E+00  0.00000000E+00  0.00000000E+00  0.00000000E+00  4.02486927E-02
  2.37593957E-01  8.15853851E-01  1.00000000E+00  1.00000000E+00  1.00000000E+00
  0.00000000E+00  0.00000000E+00  0.00000000E+00  0.00000000E+00  0.00000000E+00
  0.00000000E+00  0.00000000E+00  4.02486927E-02  2.37593957E-01  8.15853851E-01
  1.00000000E+00  1.00000000E+00  1.00000000E+00  0.00000000E+00  0.00000000E+00
  0.00000000E+00  0.00000000E+00  0.00000000E+00  0.00000000E+00  0.00000000E+00
  4.02486927E-02  2.37593957E-01  8.15853851E-01  1.00000000E+00  1.00000000E+00
  1.00000000E+00  0.00000000E+00  0.00000000E+00  0.00000000E+00  0.00000000E+00
  0.00000000E+00  0.00000000E+00  0.00000000E+00  0.00000000E+00  0.00000000E+00
  0.00000000E+00  0.00000000E+00  0.00000000E+00  0.00000000E+00  0.00000000E+00
  0.00000000E+00  0.00000000E+00  0.00000000E+00  0.00000000E+00  0.00000000E+00
  0.00000000E+00  0.00000000E+00  0.00000000E+00  0.00000000E+00  0.00000000E+00
  0.00000000E+00  0.00000000E+00  0.00000000E+00  0.00000000E+00  0.00000000E+00
  0.00000000E+00  0.00000000E+00  0.00000000E+00  0.00000000E+00  0.00000000E+00
  0.00000000E+00  0.00000000E+00  0.00000000E+00  0.00000000E+00  0.00000000E+00
  0.00000000E+00  0.00000000E+00  0.00000000E+00  0.00000000E+00  0.00000000E+00
  0.00000000E+00  0.00000000E+00  0.00000000E+00  0.00000000E+00  0.00000000E+00
  0.00000000E+00  0.00000000E+00  0.00000000E+00  0.00000000E+00  0.00000000E+00
  0.00000000E+00  0.00000000E+00  0.00000000E+00  0.00000000E+00  0.00000000E+00
  0.00000000E+00  0.00000000E+00  0.00000000E+00  0.00000000E+00  1.00000000E+00
  0.00000000E+00  0.00000000E+00  0.00000000E+00  0.00000000E+00  0.00000000E+00
  0.00000000E+00  0.00000000E+00  0.00000000E+00  0.00000000E+00  0.00000000E+00
  0.00000000E+00
Coordinates of each shell                  R   N=         216
  8.74109647E-01  3.31519764E+00  8.47135504E-02  8.74109647E-01  3.31519764E+00
  8.47135504E-02  8.74109647E-01  3.31519764E+00  8.47135504E-02  8.74109647E-01
  3.31519764E+00  8.47135504E-02  8.74109647E-01  3.31519764E+00  8.47135504E-02
  8.74109647E-01  3.31519764E+00  8.47135504E-02  1.76993832E-02  6.68857526E-01
 -6.13272674E-01  1.76993832E-02  6.68857526E-01 -6.13272674E-01  1.76993832E-02
  6.68857526E-01 -6.13272674E-01  1.76993832E-02  6.68857526E-01 -6.13272674E-01
  1.76993832E-02  6.68857526E-01 -6.13272674E-01  1.76993832E-02  6.68857526E-01
 -6.13272674E-01 -2.30166689E+00 -1.96919697E-01  8.01012563E-01 -2.30166689E+00
 -1.96919697E-01  8.01012563E-01 -2.30166689E+00 -1.96919697E-01  8.01012563E-01
 -2.30166689E+00 -1.96919697E-01  8.01012563E-01 -2.30166689E+00 -1.96919697E-01
  8.01012563E-01 -2.30166689E+00 -1.96919697E-01  8.01012563E-01 -4.41382310E+00
 -9.51733038E-01 -3.09139296E-01 -4.41382310E+00 -9.51733038E-01 -3.09139296E-01
 -4.41382310E+00 -9.51733038E-01 -3.09139296E-01 -4.41382310E+00 -9.51733038E-01
 -3.09139296E-01 -4.41382310E+00 -9.51733038E-01 -3.09139296E-01 -4.41382310E+00
 -9.51733038E-01 -3.09139296E-01 -4.47284238E+00 -1.00814397E+00 -2.35989759E+00
 -4.47284238E+00 -1.00814397E+00 -2.35989759E+00 -4.47284238E+00 -1.00814397E+00
 -2.35989759E+00 -4.47284238E+00 -1.00814397E+00 -2.35989759E+00 -4.47284238E+00
 -1.00814397E+00 -2.35989759E+00  2.58339964E+00  3.83281877E+00 -9.47801515E-01
  2.58339964E+00  3.83281877E+00 -9.47801515E-01  2.58339964E+00  3.83281877E+00
 -9.47801515E-01  2.58339964E+00  3.83281877E+00 -9.47801515E-01  2.58339964E+00
  3.83281877E+00 -9.47801515E-01 -5.97501945E+00 -1.47701883E+00  9.11557514E-01
 -5.97501945E+00 -1.47701883E+00  9.11557514E-01 -5.97501945E+00 -1.47701883E+00
  9.11557514E-01 -5.97501945E+00 -1.47701883E+00  9.11557514E-01 -5.97501945E+00
 -1.47701883E+00  9.11557514E-01 -2.08613168E+00 -1.05446905E-01  2.84394389E+00
 -2.08613168E+00 -1.05446905E-01  2.84394389E+00 -2.08613168E+00 -1.05446905E-01
  2.84394389E+00 -2.08613168E+00 -1.05446905E-01  2.84394389E+00 -2.08613168E+00
 -1.05446905E-01  2.84394389E+00 -3.31622810E-01  4.67437326E-01 -2.63424914E+00
 -3.31622810E-01  4.67437326E-01 -2.63424914E+00 -3.31622810E-01  4.67437326E-01
 -2.63424914E+00 -3.31622810E-01  4.67437326E-01 -2.63424914E+00 -3.31622810E-01
  4.67437326E-01 -2.63424914E+00  1.29146014E+00  3.44422540E+00  2.10191101E+00
  1.29146014E+00  3.44422540E+00  2.10191101E+00  1.29146014E+00  3.44422540E+00
  2.10191101E+00  1.29146014E+00  3.44422540E+00  2.10191101E+00  1.29146014E+00
  3.44422540E+00  2.10191101E+00 -6.09281536E-01  4.66124290E+00 -4.27967704E-01
 -6.09281536E-01  4.66124290E+00 -4.27967704E-01 -6.09281536E-01  4.66124290E+00
 -4.27967704E-01 -6.09281536E-01  4.66124290E+00 -4.27967704E-01 -6.09281536E-01
  4.66124290E+00 -4.27967704E-01  2.62012493E+00 -1.57808996E+00  4.30952165E-02
  2.62012493E+00 -1.57808996E+00  4.30952165E-02  2.62012493E+00 -1.57808996E+00
  4.30952165E-02  2.62012493E+00 -1.57808996E+00  4.30952165E-02  2.62012493E+00
 -1.57808996E+00  4.30952165E-02  2.62012493E+00 -1.57808996E+00  4.30952165E-02
  2.62012493E+00 -1.57808996E+00  4.30952165E-02  2.62012493E+00 -1.57808996E+00
  4.30952165E-02  2.62012493E+00 -1.57808996E+00  4.30952165E-02  2.62012493E+00
 -1.57808996E+00  4.30952165E-02  2.62012493E+00 -1.57808996E+00  4.30952165E-02
  2.62012493E+00 -1.57808996E+00  4.30952165E-02  2.62012493E+00 -1.57808996E+00
  4.30952165E-02
Constraint Structure                       R   N=          36
  8.74109647E-01  3.31519764E+00  8.47135504E-02  1.76993832E-02  6.68857526E-01
 -6.13272674E-01 -2.30166689E+00 -1.96919697E-01  8.01012563E-01 -4.41382310E+00
 -9.51733038E-01 -3.09139296E-01 -4.47284238E+00 -1.00814397E+00 -2.35989759E+00
  2.58339964E+00  3.83281877E+00 -9.47801515E-01 -5.97501945E+00 -1.47701883E+00
  9.11557514E-01 -2.08613168E+00 -1.05446905E-01  2.84394389E+00 -3.31622810E-01
  4.67437326E-01 -2.63424914E+00  1.29146014E+00  3.44422540E+00  2.10191101E+00
 -6.09281536E-01  4.66124290E+00 -4.27967704E-01  2.62012493E+00 -1.57808996E+00
  4.30952165E-02
Num ILSW                                   I              100
ILSW                                       I   N=         100
           0           0           0           0           2           0
           0           0           0           0         402          -1
           5           0           0           0           0           0
           0           0           0           0           0           0
           1           0           0           0           0           0
           0           0      100000           0          -1           0
           0           0           0           0           0           0
           0           0           0           1           0           0
           0           0           1           0           0           0
           0           0           4          41           0           0
           0           0           5           0           0           0
           0           0           0           0           0           0
           0           0           0           0           0           0
           0           0           0           0           0           0
           0           0           0           0           0           0
           0           0           0           0           0           0
           0           0           0           0
Num RLSW                                   I               41
RLSW                                       R   N=          41
  8.00000000E-01  7.20000000E-01  1.00000000E+00  8.10000000E-01  2.00000000E-01
  0.00000000E+00  0.00000000E+00  1.00000000E+00  0.00000000E+00  0.00000000E+00
  0.00000000E+00  0.00000000E+00  1.00000000E+00  0.00000000E+00  0.00000000E+00
  0.00000000E+00  0.00000000E+00  1.00000000E+00  0.00000000E+00  0.00000000E+00
  0.00000000E+00  0.00000000E+00  1.00000000E+00  0.00000000E+00  0.00000000E+00
  0.00000000E+00  0.00000000E+00  1.00000000E+00  0.00000000E+00  0.00000000E+00
  0.00000000E+00  0.00000000E+00  0.00000000E+00  0.00000000E+00  0.00000000E+00
  0.00000000E+00  0.00000000E+00  0.00000000E+00  1.00000000E+00  1.00000000E+00
  0.00000000E+00
MxBond                                     I                4
NBond                                      I   N=          12
           4           4           3           3           1           1
           1           1           1           1           1           1
IBond                                      I   N=          48
           2           6          10          11           1           3
           9          12           2           4           8           0
           3           5           7           0           4           0
           0           0           1           0           0           0
           4           0           0           0           3           0
           0           0           2           0           0           0
           1           0           0           0           1           0
           0           0           2           0           0           0
RBond                                      R   N=          48
  1.00000000E+00  1.00000000E+00  1.00000000E+00  1.00000000E+00  1.00000000E+00
  1.00000000E+00  1.00000000E+00  1.00000000E+00  1.00000000E+00  2.00000000E+00
  1.00000000E+00  0.00000000E+00  2.00000000E+00  1.00000000E+00  1.00000000E+00
  0.00000000E+00  1.00000000E+00  0.00000000E+00  0.00000000E+00  0.00000000E+00
  1.00000000E+00  0.00000000E+00  0.00000000E+00  0.00000000E+00  1.00000000E+00
  0.00000000E+00  0.00000000E+00  0.00000000E+00  1.00000000E+00  0.00000000E+00
  0.00000000E+00  0.00000000E+00  1.00000000E+00  0.00000000E+00  0.00000000E+00
  0.00000000E+00  1.00000000E+00  0.00000000E+00  0.00000000E+00  0.00000000E+00
  1.00000000E+00  0.00000000E+00  0.00000000E+00  0.00000000E+00  1.00000000E+00
  0.00000000E+00  0.00000000E+00  0.00000000E+00
Virial Ratio                               R      2.003047069921600E+00
SCF Energy                                 R     -6.168938031976300E+02
Total Energy                               R     -6.168938031976300E+02
RMS Density                                R      7.985591862440643E-12
Nuclear derivative order                   I                0
External E-field                           R   N=          35
  0.00000000E+00  0.00000000E+00  0.00000000E+00  0.00000000E+00  0.00000000E+00
  0.00000000E+00  0.00000000E+00  0.00000000E+00  0.00000000E+00  0.00000000E+00
  0.00000000E+00  0.00000000E+00  0.00000000E+00  0.00000000E+00  0.00000000E+00
  0.00000000E+00  0.00000000E+00  0.00000000E+00  0.00000000E+00  0.00000000E+00
  0.00000000E+00  0.00000000E+00  0.00000000E+00  0.00000000E+00  0.00000000E+00
  0.00000000E+00  0.00000000E+00  0.00000000E+00  0.00000000E+00  0.00000000E+00
  0.00000000E+00  0.00000000E+00  0.00000000E+00  0.00000000E+00  0.00000000E+00
IOpCl                                      I                0
IROHF                                      I                0
Alpha Orbital Energies                     R   N=         167
 -1.01534433E+02 -1.02469740E+01 -1.01922696E+01 -1.01833660E+01 -1.01814653E+01
 -9.44883597E+00 -7.21317190E+00 -7.20375540E+00 -7.20359972E+00 -8.67006027E-01
 -7.88223477E-01 -7.43512904E-01 -6.38449702E-01 -5.75805180E-01 -4.86044317E-01
 -4.73746083E-01 -4.46043990E-01 -4.16467140E-01 -4.04750261E-01 -3.76720674E-01
 -3.64481574E-01 -3.05760234E-01 -2.99145636E-01 -2.81407099E-01 -3.05872090E-02
 -7.59323735E-03  6.44619406E-03  7.15734517E-03  2.22592459E-02  2.82448972E-02
  3.89173023E-02  4.12292581E-02  6.38773777E-02  6.49388304E-02  7.28377613E-02
  8.17556829E-02  8.59247590E-02  9.91128799E-02  1.10857148E-01  1.15703753E-01
  1.18237193E-01  1.21731757E-01  1.28023208E-01  1.31077770E-01  1.36426410E-01
  1.41841506E-01  1.50990032E-01  1.57154500E-01  1.61204859E-01  1.63298286E-01
  1.73110460E-01  1.85325722E-01  1.91136421E-01  2.14771428E-01  2.20069133E-01
  2.27409247E-01  2.42036517E-01  2.61522494E-01  2.69705479E-01  2.91693582E-01
  3.41109392E-01  3.53992966E-01  3.92099273E-01  4.24193754E-01  4.30883889E-01
  4.48427697E-01  4.55749661E-01  4.83521858E-01  4.87832139E-01  4.95474315E-01
  5.22945649E-01  5.27944043E-01  5.65949269E-01  5.86825173E-01  5.98912690E-01
  6.25098438E-01  6.37461787E-01  6.47677533E-01  6.59122660E-01  6.60278896E-01
  6.94559739E-01  7.05766439E-01  7.36039648E-01  7.40940971E-01  7.87991412E-01
  8.13980421E-01  8.32591302E-01  8.64772934E-01  8.90804440E-01  9.03650005E-01
  9.44261050E-01  9.58040648E-01  1.00431285E+00  1.03049634E+00  1.06062265E+00
  1.08616396E+00  1.12946383E+00  1.18234336E+00  1.19720004E+00  1.28852830E+00
  1.36632218E+00  1.40509705E+00  1.45172683E+00  1.46702284E+00  1.51007553E+00
  1.54439894E+00  1.55845086E+00  1.58446681E+00  1.60485832E+00  1.62976140E+00
  1.67174625E+00  1.69144883E+00  1.69984923E+00  1.72548191E+00  1.77375708E+00
  1.78341376E+00  1.88587838E+00  1.89140715E+00  1.93384895E+00  1.98227802E+00
  1.99860708E+00  2.07596858E+00  2.11413450E+00  2.13545785E+00  2.19237053E+00
  2.20366684E+00  2.24611367E+00  2.29789429E+00  2.31557688E+00  2.36733035E+00
  2.37213082E+00  2.45380228E+00  2.47157139E+00  2.50089601E+00  2.53129815E+00
  2.56817432E+00  2.57440588E+00  2.59168576E+00  2.61175989E+00  2.64289130E+00
  2.70883036E+00  2.73821154E+00  2.75380799E+00  2.79302901E+00  2.84846715E+00
  2.86318778E+00  2.93135899E+00  3.06198493E+00  3.08657323E+00  3.18302741E+00
  3.40801863E+00  3.51502841E+00  3.71367113E+00  3.78048700E+00  3.81124927E+00
  3.93449373E+00  4.12294276E+00  4.28036976E+00  9.75654845E+00  2.37166678E+01
  2.37779830E+01  2.39454195E+01  2.42752788E+01  2.59298623E+01  2.59750490E+01
  2.64451609E+01  2.15746336E+02
Alpha MO coefficients                      R   N=       27889
  1.75593852E-07 -3.73132797E-07 -2.71278080E-06 -2.13504028E-06 -1.33453033E-06
  2.28755461E-07  2.02125199E-05  1.50517449E-05  9.81792835E-06  2.12956548E-05
  4.13007067E-05  2.69874725E-05  2.19623591E-05 -1.65278822E-03 -1.50821738E-04
  5.00309033E-04  3.77438620E-05  7.77293777E-06 -3.03079597E-06 -4.60043296E-06
  1.33692741E-05  5.79818390E-07  1.48020076E-06 -3.05979835E-06  1.22109137E-05
 -1.20669454E-05  5.52378570E-06 -1.57246533E-05 -1.36501887E-05  1.99761889E-05
 -2.03559669E-05  1.78173176E-04  1.18843592E-04 -1.28357024E-04 -9.27269755E-06
  3.71515352E-03 -4.96273790E-04  4.51182741E-04  8.09738639E-04  9.28975584E-06
 -2.81956667E-07  4.32052114E-06 -2.38495947E-06  8.16391572E-06 -5.00086005E-07
  1.48609201E-06  4.16624178E-06 -2.58710623E-06 -4.22229675E-06 -7.24704330E-06
 -2.41485079E-05  9.74131455E-06  2.53252739E-05  1.55852919E-05  1.44443194E-05
 -8.80377627E-06 -5.15776271E-05 -1.10349499E-03 -1.20705151E-03 -3.89538588E-04
 -1.13523750E-04  6.97067483E-06  7.22988113E-06 -5.47791559E-06  1.08763211E-06
 -3.57156828E-06  2.55186481E-07 -7.72968748E-07 -1.99033760E-06  6.05172358E-07
  1.05547397E-06  9.32281524E-06  8.87745216E-06 -2.34056523E-06 -5.55432095E-07
 -5.35825957E-05 -8.53325751E-05 -2.06552183E-05  6.73834879E-05 -1.67233822E-03
 -3.47857509E-04 -1.81777451E-04 -9.49405464E-05 -4.61605488E-06 -1.14833080E-06
 -3.23314223E-06 -2.56506695E-06 -2.29314228E-06 -3.04029952E-06  3.45796732E-05
  7.31020338E-05  7.17775602E-05  5.47573925E-06 -1.80844589E-07  6.26960736E-06
  1.23045745E-05 -8.49517331E-05  7.32177667E-05  2.29433882E-04  8.19224794E-06
  1.35129884E-05 -1.14922949E-05  2.19146873E-06 -1.85087338E-05 -6.35544290E-05
 -1.54944756E-04 -2.80498948E-08  1.68541558E-07  1.07828118E-06  6.57013655E-06
 -4.14028547E-05  6.18636041E-05  1.56493253E-04 -1.13104162E-05  1.69134012E-06
  1.46041104E-05 -1.39681598E-06 -6.17927462E-05 -1.28174553E-04  1.03289517E-04
 -6.69482640E-06  2.58492760E-06 -1.68614765E-05  1.00780025E-05 -6.52728918E-05
 -2.06477777E-05  7.07232300E-05 -4.68630916E-06  1.22730118E-05  1.57970891E-05
 -8.08159713E-06  4.11664642E-05 -1.38372460E-04 -3.08821854E-04  5.99510997E-07
 -5.45439958E-06 -4.41541477E-07  4.11609677E-01  6.54076160E-01  1.50040013E-02