(R)-3-chloro-1-butene tau=120                                           
SP        RB3LYP                                                      6-311++G(d,p)       
Number of atoms                            I               12
Info1-9                                    I   N=           9
          26          26           0           0           0         110
           1          18        -502
Full Title                                 C   N=           3
(R)-3-chloro-1-butene tau=120       
Route                                      C   N=           7
#P B3LYP/6-311++G** scf(conver=11) int=ultrafine polar=optro
t cphf(rdfreq,conver=11)
Charge                                     I                0
Multiplicity                               I                1
Number of electrons                        I               48
Number of alpha electrons                  I               24
Number of beta electrons                   I               24
Number of basis functions                  I              167
Number of independent functions            I              167
Number of point charges in /Mol/           I                0
Number of translation vectors              I                0
Atomic numbers                             I   N=          12
           6           6           6           6           1           1
           1           1           1           1           1          17
Nuclear charges                            R   N=          12
  6.00000000E+00  6.00000000E+00  6.00000000E+00  6.00000000E+00  1.00000000E+00
  1.00000000E+00  1.00000000E+00  1.00000000E+00  1.00000000E+00  1.00000000E+00
  1.00000000E+00  1.70000000E+01
Current cartesian coordinates              R   N=          36
  8.81707187E-01  3.31533818E+00  7.21729853E-02  8.71409156E-03  6.60775426E-01
 -6.11799644E-01 -2.27743354E+00 -1.84570203E-01  8.14244223E-01 -4.41494591E+00
 -9.48227167E-01 -2.73089527E-01 -4.60055968E+00 -1.05424503E+00 -2.40582961E+00
  2.58878569E+00  3.82175014E+00 -9.68008969E-01 -5.95580552E+00 -1.46761387E+00
  7.63436788E-01 -2.12990746E+00 -1.15794375E-01  2.84197752E+00 -2.99550933E-01
  4.83892815E-01 -2.64274213E+00  1.27555339E+00  3.46425359E+00  2.09235374E+00
 -6.09987574E-01  4.66579413E+00 -4.05057689E-01  2.62018948E+00 -1.57987852E+00
  4.20413017E-02
Number of symbols in /Mol/                 I                0
Force Field                                I                0
Atom Types                                 C   N=          12
                                                            
                                                            
                        
Int Atom Types                             I   N=          12
           0           0           0           0           0           0
           0           0           0           0           0           0
MM charges                                 R   N=          12
  0.00000000E+00  0.00000000E+00  0.00000000E+00  0.00000000E+00  0.00000000E+00
  0.00000000E+00  0.00000000E+00  0.00000000E+00  0.00000000E+00  0.00000000E+00
  0.00000000E+00  0.00000000E+00
Integer atomic weights                     I   N=          12
          12          12          12          12           1           1
           1           1           1           1           1          35
Real atomic weights                        R   N=          12
  1.20000000E+01  1.20000000E+01  1.20000000E+01  1.20000000E+01  1.00782504E+00
  1.00782504E+00  1.00782504E+00  1.00782504E+00  1.00782504E+00  1.00782504E+00
  1.00782504E+00  3.49688527E+01
Atom fragment info                         I   N=          12
           0           0           0           0           0           0
           0           0           0           0           0           0
Atom residue num                           I   N=          12
           0           0           0           0           0           0
           0           0           0           0           0           0
Nuclear spins                              I   N=          12
           0           0           0           0           1           1
           1           1           1           1           1           3
Nuclear ZEff                               R   N=          12
 -3.60000000E+00 -3.60000000E+00 -3.60000000E+00 -3.60000000E+00 -1.00000000E+00
 -1.00000000E+00 -1.00000000E+00 -1.00000000E+00 -1.00000000E+00 -1.00000000E+00
 -1.00000000E+00 -1.42400000E+01
Nuclear ZNuc                               R   N=          12
  6.00000000E+00  6.00000000E+00  6.00000000E+00  6.00000000E+00  1.00000000E+00
  1.00000000E+00  1.00000000E+00  1.00000000E+00  1.00000000E+00  1.00000000E+00
  1.00000000E+00  1.70000000E+01
Nuclear QMom                               R   N=          12
  0.00000000E+00  0.00000000E+00  0.00000000E+00  0.00000000E+00  0.00000000E+00
  0.00000000E+00  0.00000000E+00  0.00000000E+00  0.00000000E+00  0.00000000E+00
  0.00000000E+00 -8.16500000E+00
Nuclear GFac                               R   N=          12
  0.00000000E+00  0.00000000E+00  0.00000000E+00  0.00000000E+00  2.79284600E+00
  2.79284600E+00  2.79284600E+00  2.79284600E+00  2.79284600E+00  2.79284600E+00
  2.79284600E+00  8.21874000E-01
MicOpt                                     I   N=          12
          -1          -1          -1          -1          -1          -1
          -1          -1          -1          -1          -1          -1
Number of residues                         I                0
Number of secondary structures             I                0
SymInf integers                            I   N=          26
           1           1           1           1           1           0
           0           0           0           0           0           0
           0           0           0           0           0           0
           0           0           0           0           0           0
           0           0
RotTr to input orientation                 R   N=          12
  9.99997998E-01 -1.03959353E-03  1.70948519E-03  1.03783222E-03  9.99998930E-01
  1.03088333E-03 -1.71055506E-03 -1.02910711E-03  9.99998007E-01  7.92346420E-04
  2.46115176E-04 -1.65371154E-03
Number of contracted shells                I               72
Number of primitive shells                 I              126
Pure/Cartesian d shells                    I                0
Pure/Cartesian f shells                    I                0
Highest angular momentum                   I                2
Largest degree of contraction              I                6
Shell types                                I   N=          72
           0          -1          -1          -1          -1          -2
           0          -1          -1          -1          -1          -2
           0          -1          -1          -1          -1          -2
           0          -1          -1          -1          -1          -2
           0           0           0           0           1           0
           0           0           0           1           0           0
           0           0           1           0           0           0
           0           1           0           0           0           0
           1           0           0           0           0           1
           0           0           0           0           1           0
           0           0           0           0           0          -1
           1           1           1           1           1          -2
Number of primitives per shell             I   N=          72
           6           3           1           1           1           1
           6           3           1           1           1           1
           6           3           1           1           1           1
           6           3           1           1           1           1
           3           1           1           1           1           3
           1           1           1           1           3           1
           1           1           1           3           1           1
           1           1           3           1           1           1
           1           3           1           1           1           1
           3           1           1           1           1           6
           3           1           1           1           1           1
           5           2           1           1           1           1
Shell to atom map                          I   N=          72
           1           1           1           1           1           1
           2           2           2           2           2           2
           3           3           3           3           3           3
           4           4           4           4           4           4
           5           5           5           5           5           6
           6           6           6           6           7           7
           7           7           7           8           8           8
           8           8           9           9           9           9
           9          10          10          10          10          10
          11          11          11          11          11          12
          12          12          12          12          12          12
          12          12          12          12          12          12
Primitive exponents                        R   N=         126
  4.56324000E+03  6.82024000E+02  1.54973000E+02  4.44553000E+01  1.30290000E+01
  1.82773000E+00  2.09642000E+01  4.80331000E+00  1.45933000E+00  4.83456000E-01
  1.45585000E-01  4.38000000E-02  6.26000000E-01  4.56324000E+03  6.82024000E+02
  1.54973000E+02  4.44553000E+01  1.30290000E+01  1.82773000E+00  2.09642000E+01
  4.80331000E+00  1.45933000E+00  4.83456000E-01  1.45585000E-01  4.38000000E-02
  6.26000000E-01  4.56324000E+03  6.82024000E+02  1.54973000E+02  4.44553000E+01
  1.30290000E+01  1.82773000E+00  2.09642000E+01  4.80331000E+00  1.45933000E+00
  4.83456000E-01  1.45585000E-01  4.38000000E-02  6.26000000E-01  4.56324000E+03
  6.82024000E+02  1.54973000E+02  4.44553000E+01  1.30290000E+01  1.82773000E+00
  2.09642000E+01  4.80331000E+00  1.45933000E+00  4.83456000E-01  1.45585000E-01
  4.38000000E-02  6.26000000E-01  3.38650000E+01  5.09479000E+00  1.15879000E+00
  3.25840000E-01  1.02741000E-01  3.60000000E-02  7.50000000E-01  3.38650000E+01
  5.09479000E+00  1.15879000E+00  3.25840000E-01  1.02741000E-01  3.60000000E-02
  7.50000000E-01  3.38650000E+01  5.09479000E+00  1.15879000E+00  3.25840000E-01
  1.02741000E-01  3.60000000E-02  7.50000000E-01  3.38650000E+01  5.09479000E+00
  1.15879000E+00  3.25840000E-01  1.02741000E-01  3.60000000E-02  7.50000000E-01
  3.38650000E+01  5.09479000E+00  1.15879000E+00  3.25840000E-01  1.02741000E-01
  3.60000000E-02  7.50000000E-01  3.38650000E+01  5.09479000E+00  1.15879000E+00
  3.25840000E-01  1.02741000E-01  3.60000000E-02  7.50000000E-01  3.38650000E+01
  5.09479000E+00  1.15879000E+00  3.25840000E-01  1.02741000E-01  3.60000000E-02
  7.50000000E-01  1.05819000E+05  1.58720000E+04  3.61965000E+03  1.03080000E+03
  3.39908000E+02  1.24538000E+02  1.24538000E+02  4.95135000E+01  2.08056000E+01
  6.58346000E+00  2.56468000E+00  5.59763000E-01  1.83273000E-01  4.83000000E-02
  5.89776000E+02  1.39849000E+02  4.51413000E+01  1.68733000E+01  2.77152000E+00
  6.74110000E+00  2.77152000E+00  1.02387000E+00  3.81368000E-01  1.09437000E-01
  7.50000000E-01
Contraction coefficients                   R   N=         126
  1.96665025E-03  1.52306019E-02  7.61269097E-02  2.60801033E-01  6.16462078E-01
  2.21006028E-01  1.14660081E-01  9.19999648E-01 -3.03068213E-03  1.00000000E+00
  1.00000000E+00  1.00000000E+00  1.00000000E+00  1.96665025E-03  1.52306019E-02
  7.61269097E-02  2.60801033E-01  6.16462078E-01  2.21006028E-01  1.14660081E-01
  9.19999648E-01 -3.03068213E-03  1.00000000E+00  1.00000000E+00  1.00000000E+00
  1.00000000E+00  1.96665025E-03  1.52306019E-02  7.61269097E-02  2.60801033E-01
  6.16462078E-01  2.21006028E-01  1.14660081E-01  9.19999648E-01 -3.03068213E-03
  1.00000000E+00  1.00000000E+00  1.00000000E+00  1.00000000E+00  1.96665025E-03
  1.52306019E-02  7.61269097E-02  2.60801033E-01  6.16462078E-01  2.21006028E-01
  1.14660081E-01  9.19999648E-01 -3.03068213E-03  1.00000000E+00  1.00000000E+00
  1.00000000E+00  1.00000000E+00  2.54938145E-02  1.90373109E-01  8.52161486E-01
  1.00000000E+00  1.00000000E+00  1.00000000E+00  1.00000000E+00  2.54938145E-02
  1.90373109E-01  8.52161486E-01  1.00000000E+00  1.00000000E+00  1.00000000E+00
  1.00000000E+00  2.54938145E-02  1.90373109E-01  8.52161486E-01  1.00000000E+00
  1.00000000E+00  1.00000000E+00  1.00000000E+00  2.54938145E-02  1.90373109E-01
  8.52161486E-01  1.00000000E+00  1.00000000E+00  1.00000000E+00  1.00000000E+00
  2.54938145E-02  1.90373109E-01  8.52161486E-01  1.00000000E+00  1.00000000E+00
  1.00000000E+00  1.00000000E+00  2.54938145E-02  1.90373109E-01  8.52161486E-01
  1.00000000E+00  1.00000000E+00  1.00000000E+00  1.00000000E+00  2.54938145E-02
  1.90373109E-01  8.52161486E-01  1.00000000E+00  1.00000000E+00  1.00000000E+00
  1.00000000E+00  7.38000247E-04  5.71800191E-03  2.94950099E-02  1.17286039E-01
  3.62949121E-01  5.84149195E-01  1.34176973E-01  6.24249876E-01  2.91755942E-01
  1.00000000E+00  1.00000000E+00  1.00000000E+00  1.00000000E+00  1.00000000E+00
  3.66556935E-03  2.83679194E-02  1.24756603E-01  3.39654631E-01  7.47585963E-01
 -1.57224381E+00  9.92388882E-01  1.00000000E+00  1.00000000E+00  1.00000000E+00
  1.00000000E+00
P(S=P) Contraction coefficients            R   N=         126
  0.00000000E+00  0.00000000E+00  0.00000000E+00  0.00000000E+00  0.00000000E+00
  0.00000000E+00  4.02486927E-02  2.37593957E-01  8.15853851E-01  1.00000000E+00
  1.00000000E+00  1.00000000E+00  0.00000000E+00  0.00000000E+00  0.00000000E+00
  0.00000000E+00  0.00000000E+00  0.00000000E+00  0.00000000E+00  4.02486927E-02
  2.37593957E-01  8.15853851E-01  1.00000000E+00  1.00000000E+00  1.00000000E+00
  0.00000000E+00  0.00000000E+00  0.00000000E+00  0.00000000E+00  0.00000000E+00
  0.00000000E+00  0.00000000E+00  4.02486927E-02  2.37593957E-01  8.15853851E-01
  1.00000000E+00  1.00000000E+00  1.00000000E+00  0.00000000E+00  0.00000000E+00
  0.00000000E+00  0.00000000E+00  0.00000000E+00  0.00000000E+00  0.00000000E+00
  4.02486927E-02  2.37593957E-01  8.15853851E-01  1.00000000E+00  1.00000000E+00
  1.00000000E+00  0.00000000E+00  0.00000000E+00  0.00000000E+00  0.00000000E+00
  0.00000000E+00  0.00000000E+00  0.00000000E+00  0.00000000E+00  0.00000000E+00
  0.00000000E+00  0.00000000E+00  0.00000000E+00  0.00000000E+00  0.00000000E+00
  0.00000000E+00  0.00000000E+00  0.00000000E+00  0.00000000E+00  0.00000000E+00
  0.00000000E+00  0.00000000E+00  0.00000000E+00  0.00000000E+00  0.00000000E+00
  0.00000000E+00  0.00000000E+00  0.00000000E+00  0.00000000E+00  0.00000000E+00
  0.00000000E+00  0.00000000E+00  0.00000000E+00  0.00000000E+00  0.00000000E+00
  0.00000000E+00  0.00000000E+00  0.00000000E+00  0.00000000E+00  0.00000000E+00
  0.00000000E+00  0.00000000E+00  0.00000000E+00  0.00000000E+00  0.00000000E+00
  0.00000000E+00  0.00000000E+00  0.00000000E+00  0.00000000E+00  0.00000000E+00
  0.00000000E+00  0.00000000E+00  0.00000000E+00  0.00000000E+00  0.00000000E+00
  0.00000000E+00  0.00000000E+00  0.00000000E+00  0.00000000E+00  0.00000000E+00
  0.00000000E+00  0.00000000E+00  0.00000000E+00  0.00000000E+00  1.00000000E+00
  0.00000000E+00  0.00000000E+00  0.00000000E+00  0.00000000E+00  0.00000000E+00
  0.00000000E+00  0.00000000E+00  0.00000000E+00  0.00000000E+00  0.00000000E+00
  0.00000000E+00
Coordinates of each shell                  R   N=         216
  8.81707187E-01  3.31533818E+00  7.21729853E-02  8.81707187E-01  3.31533818E+00
  7.21729853E-02  8.81707187E-01  3.31533818E+00  7.21729853E-02  8.81707187E-01
  3.31533818E+00  7.21729853E-02  8.81707187E-01  3.31533818E+00  7.21729853E-02
  8.81707187E-01  3.31533818E+00  7.21729853E-02  8.71409156E-03  6.60775426E-01
 -6.11799644E-01  8.71409156E-03  6.60775426E-01 -6.11799644E-01  8.71409156E-03
  6.60775426E-01 -6.11799644E-01  8.71409156E-03  6.60775426E-01 -6.11799644E-01
  8.71409156E-03  6.60775426E-01 -6.11799644E-01  8.71409156E-03  6.60775426E-01
 -6.11799644E-01 -2.27743354E+00 -1.84570203E-01  8.14244223E-01 -2.27743354E+00
 -1.84570203E-01  8.14244223E-01 -2.27743354E+00 -1.84570203E-01  8.14244223E-01
 -2.27743354E+00 -1.84570203E-01  8.14244223E-01 -2.27743354E+00 -1.84570203E-01
  8.14244223E-01 -2.27743354E+00 -1.84570203E-01  8.14244223E-01 -4.41494591E+00
 -9.48227167E-01 -2.73089527E-01 -4.41494591E+00 -9.48227167E-01 -2.73089527E-01
 -4.41494591E+00 -9.48227167E-01 -2.73089527E-01 -4.41494591E+00 -9.48227167E-01
 -2.73089527E-01 -4.41494591E+00 -9.48227167E-01 -2.73089527E-01 -4.41494591E+00
 -9.48227167E-01 -2.73089527E-01 -4.60055968E+00 -1.05424503E+00 -2.40582961E+00
 -4.60055968E+00 -1.05424503E+00 -2.40582961E+00 -4.60055968E+00 -1.05424503E+00
 -2.40582961E+00 -4.60055968E+00 -1.05424503E+00 -2.40582961E+00 -4.60055968E+00
 -1.05424503E+00 -2.40582961E+00  2.58878569E+00  3.82175014E+00 -9.68008969E-01
  2.58878569E+00  3.82175014E+00 -9.68008969E-01  2.58878569E+00  3.82175014E+00
 -9.68008969E-01  2.58878569E+00  3.82175014E+00 -9.68008969E-01  2.58878569E+00
  3.82175014E+00 -9.68008969E-01 -5.95580552E+00 -1.46761387E+00  7.63436788E-01
 -5.95580552E+00 -1.46761387E+00  7.63436788E-01 -5.95580552E+00 -1.46761387E+00
  7.63436788E-01 -5.95580552E+00 -1.46761387E+00  7.63436788E-01 -5.95580552E+00
 -1.46761387E+00  7.63436788E-01 -2.12990746E+00 -1.15794375E-01  2.84197752E+00
 -2.12990746E+00 -1.15794375E-01  2.84197752E+00 -2.12990746E+00 -1.15794375E-01
  2.84197752E+00 -2.12990746E+00 -1.15794375E-01  2.84197752E+00 -2.12990746E+00
 -1.15794375E-01  2.84197752E+00 -2.99550933E-01  4.83892815E-01 -2.64274213E+00
 -2.99550933E-01  4.83892815E-01 -2.64274213E+00 -2.99550933E-01  4.83892815E-01
 -2.64274213E+00 -2.99550933E-01  4.83892815E-01 -2.64274213E+00 -2.99550933E-01
  4.83892815E-01 -2.64274213E+00  1.27555339E+00  3.46425359E+00  2.09235374E+00
  1.27555339E+00  3.46425359E+00  2.09235374E+00  1.27555339E+00  3.46425359E+00
  2.09235374E+00  1.27555339E+00  3.46425359E+00  2.09235374E+00  1.27555339E+00
  3.46425359E+00  2.09235374E+00 -6.09987574E-01  4.66579413E+00 -4.05057689E-01
 -6.09987574E-01  4.66579413E+00 -4.05057689E-01 -6.09987574E-01  4.66579413E+00
 -4.05057689E-01 -6.09987574E-01  4.66579413E+00 -4.05057689E-01 -6.09987574E-01
  4.66579413E+00 -4.05057689E-01  2.62018948E+00 -1.57987852E+00  4.20413017E-02
  2.62018948E+00 -1.57987852E+00  4.20413017E-02  2.62018948E+00 -1.57987852E+00
  4.20413017E-02  2.62018948E+00 -1.57987852E+00  4.20413017E-02  2.62018948E+00
 -1.57987852E+00  4.20413017E-02  2.62018948E+00 -1.57987852E+00  4.20413017E-02
  2.62018948E+00 -1.57987852E+00  4.20413017E-02  2.62018948E+00 -1.57987852E+00
  4.20413017E-02  2.62018948E+00 -1.57987852E+00  4.20413017E-02  2.62018948E+00
 -1.57987852E+00  4.20413017E-02  2.62018948E+00 -1.57987852E+00  4.20413017E-02
  2.62018948E+00 -1.57987852E+00  4.20413017E-02  2.62018948E+00 -1.57987852E+00
  4.20413017E-02
Constraint Structure                       R   N=          36
  8.81707187E-01  3.31533818E+00  7.21729853E-02  8.71409156E-03  6.60775426E-01
 -6.11799644E-01 -2.27743354E+00 -1.84570203E-01  8.14244223E-01 -4.41494591E+00
 -9.48227167E-01 -2.73089527E-01 -4.60055968E+00 -1.05424503E+00 -2.40582961E+00
  2.58878569E+00  3.82175014E+00 -9.68008969E-01 -5.95580552E+00 -1.46761387E+00
  7.63436788E-01 -2.12990746E+00 -1.15794375E-01  2.84197752E+00 -2.99550933E-01
  4.83892815E-01 -2.64274213E+00  1.27555339E+00  3.46425359E+00  2.09235374E+00
 -6.09987574E-01  4.66579413E+00 -4.05057689E-01  2.62018948E+00 -1.57987852E+00
  4.20413017E-02
Num ILSW                                   I              100
ILSW                                       I   N=         100
           0           0           0           0           2           0
           0           0           0           0         402          -1
           5           0           0           0           0           0
           0           0           0           0           0           0
           1           0           0           0           0           0
           0           0      100000           0          -1           0
           0           0           0           0           0           0
           0           0           0           1           0           0
           0           0           1           0           0           0
           0           0           4          41           0           0
           0           0           5           0           0           0
           0           0           0           0           0           0
           0           0           0           0           0           0
           0           0           0           0           0           0
           0           0           0           0           0           0
           0           0           0           0           0           0
           0           0           0           0
Num RLSW                                   I               41
RLSW                                       R   N=          41
  8.00000000E-01  7.20000000E-01  1.00000000E+00  8.10000000E-01  2.00000000E-01
  0.00000000E+00  0.00000000E+00  1.00000000E+00  0.00000000E+00  0.00000000E+00
  0.00000000E+00  0.00000000E+00  1.00000000E+00  0.00000000E+00  0.00000000E+00
  0.00000000E+00  0.00000000E+00  1.00000000E+00  0.00000000E+00  0.00000000E+00
  0.00000000E+00  0.00000000E+00  1.00000000E+00  0.00000000E+00  0.00000000E+00
  0.00000000E+00  0.00000000E+00  1.00000000E+00  0.00000000E+00  0.00000000E+00
  0.00000000E+00  0.00000000E+00  0.00000000E+00  0.00000000E+00  0.00000000E+00
  0.00000000E+00  0.00000000E+00  0.00000000E+00  1.00000000E+00  1.00000000E+00
  0.00000000E+00
MxBond                                     I                4
NBond                                      I   N=          12
           4           4           3           3           1           1
           1           1           1           1           1           1
IBond                                      I   N=          48
           2           6          10          11           1           3
           9          12           2           4           8           0
           3           5           7           0           4           0
           0           0           1           0           0           0
           4           0           0           0           3           0
           0           0           2           0           0           0
           1           0           0           0           1           0
           0           0           2           0           0           0
RBond                                      R   N=          48
  1.00000000E+00  1.00000000E+00  1.00000000E+00  1.00000000E+00  1.00000000E+00
  1.00000000E+00  1.00000000E+00  1.00000000E+00  1.00000000E+00  2.00000000E+00
  1.00000000E+00  0.00000000E+00  2.00000000E+00  1.00000000E+00  1.00000000E+00
  0.00000000E+00  1.00000000E+00  0.00000000E+00  0.00000000E+00  0.00000000E+00
  1.00000000E+00  0.00000000E+00  0.00000000E+00  0.00000000E+00  1.00000000E+00
  0.00000000E+00  0.00000000E+00  0.00000000E+00  1.00000000E+00  0.00000000E+00
  0.00000000E+00  0.00000000E+00  1.00000000E+00  0.00000000E+00  0.00000000E+00
  0.00000000E+00  1.00000000E+00  0.00000000E+00  0.00000000E+00  0.00000000E+00
  1.00000000E+00  0.00000000E+00  0.00000000E+00  0.00000000E+00  1.00000000E+00
  0.00000000E+00  0.00000000E+00  0.00000000E+00
Virial Ratio                               R      2.002980582825870E+00
SCF Energy                                 R     -6.168914681832688E+02
Total Energy                               R     -6.168914681832688E+02
RMS Density                                R      8.201785355525342E-12
Nuclear derivative order                   I                0
External E-field                           R   N=          35
  0.00000000E+00  0.00000000E+00  0.00000000E+00  0.00000000E+00  0.00000000E+00
  0.00000000E+00  0.00000000E+00  0.00000000E+00  0.00000000E+00  0.00000000E+00
  0.00000000E+00  0.00000000E+00  0.00000000E+00  0.00000000E+00  0.00000000E+00
  0.00000000E+00  0.00000000E+00  0.00000000E+00  0.00000000E+00  0.00000000E+00
  0.00000000E+00  0.00000000E+00  0.00000000E+00  0.00000000E+00  0.00000000E+00
  0.00000000E+00  0.00000000E+00  0.00000000E+00  0.00000000E+00  0.00000000E+00
  0.00000000E+00  0.00000000E+00  0.00000000E+00  0.00000000E+00  0.00000000E+00
IOpCl                                      I                0
IROHF                                      I                0
Alpha Orbital Energies                     R   N=         167
 -1.01534044E+02 -1.02474007E+01 -1.01932441E+01 -1.01825111E+01 -1.01812224E+01
 -9.44847070E+00 -7.21280777E+00 -7.20339017E+00 -7.20322635E+00 -8.67376525E-01
 -7.87443382E-01 -7.42775449E-01 -6.42057929E-01 -5.77610677E-01 -4.91581248E-01
 -4.72724107E-01 -4.46564528E-01 -4.17172228E-01 -4.01692892E-01 -3.75398222E-01
 -3.67772957E-01 -3.06122898E-01 -2.98477099E-01 -2.80430368E-01 -3.29031569E-02
 -7.34724854E-03  6.17537566E-03  7.87550910E-03  2.17067044E-02  2.84181096E-02
  3.88815902E-02  4.08099469E-02  6.41718134E-02  6.45633784E-02  7.28053885E-02
  8.31486115E-02  8.73688350E-02  9.89024945E-02  1.11204531E-01  1.16585947E-01
  1.18577048E-01  1.21823611E-01  1.29077706E-01  1.31000012E-01  1.35312778E-01
  1.41561007E-01  1.50653934E-01  1.57171852E-01  1.59257640E-01  1.65919179E-01
  1.71679049E-01  1.88482762E-01  1.90608123E-01  2.16587320E-01  2.19841260E-01
  2.26003038E-01  2.46019015E-01  2.62717881E-01  2.75291214E-01  2.91982161E-01
  3.40835425E-01  3.57489337E-01  3.89884638E-01  4.25127048E-01  4.30560034E-01
  4.47010939E-01  4.56779870E-01  4.78293770E-01  4.88597963E-01  4.95620708E-01
  5.25850617E-01  5.28315864E-01  5.68148494E-01  5.87896541E-01  5.98504063E-01
  6.23419773E-01  6.36822100E-01  6.46833845E-01  6.57615447E-01  6.61869402E-01
  6.83560790E-01  7.06418536E-01  7.33673498E-01  7.58381047E-01  7.89712593E-01
  8.15921230E-01  8.30486989E-01  8.62555091E-01  8.91623622E-01  9.03011926E-01
  9.44655133E-01  9.60320821E-01  1.00546193E+00  1.03223787E+00  1.06585777E+00
  1.08377613E+00  1.12661412E+00  1.17541244E+00  1.19814231E+00  1.29272277E+00
  1.39269412E+00  1.44089039E+00  1.45599786E+00  1.46038578E+00  1.50843964E+00
  1.54390589E+00  1.56092909E+00  1.58553687E+00  1.59644269E+00  1.62711572E+00
  1.66697355E+00  1.69010416E+00  1.69935504E+00  1.73002631E+00  1.77136459E+00
  1.80322819E+00  1.86963001E+00  1.87746930E+00  1.94037209E+00  1.98781292E+00
  2.01812213E+00  2.07752054E+00  2.11108222E+00  2.17338875E+00  2.18696087E+00
  2.20694931E+00  2.24616725E+00  2.29895378E+00  2.31004846E+00  2.35767512E+00
  2.37425021E+00  2.45493948E+00  2.46787655E+00  2.48805295E+00  2.52576071E+00
  2.55796929E+00  2.58101334E+00  2.59931502E+00  2.62629902E+00  2.64886286E+00
  2.73318857E+00  2.74547393E+00  2.75172247E+00  2.78303874E+00  2.85627487E+00
  2.86359283E+00  2.93060457E+00  3.08002158E+00  3.10172739E+00  3.18584392E+00
  3.39786233E+00  3.51327643E+00  3.71448805E+00  3.79507994E+00  3.79717867E+00
  3.99628437E+00  4.11864873E+00  4.28947744E+00  9.75611870E+00  2.37358304E+01
  2.37968602E+01  2.39454825E+01  2.42638235E+01  2.59308608E+01  2.59746810E+01
  2.64458786E+01  2.15745948E+02
Alpha MO coefficients                      R   N=       27889
  1.84419513E-07 -3.96438702E-07 -2.68449759E-06 -2.12964203E-06 -1.28218720E-06
  4.61791239E-07  1.98766161E-05  1.52052135E-05  9.36439698E-06  1.40078956E-05
  3.70911519E-05  2.97762517E-05  2.24734605E-05 -1.67062013E-03 -1.53134336E-04
  5.05435427E-04  3.67651703E-05  7.60947144E-06 -3.23155110E-06 -4.64695279E-06
  1.30425458E-05  4.27804690E-07  1.46847608E-06 -3.03644976E-06  1.21701254E-05
 -1.19128693E-05  5.27967656E-06 -1.57501405E-05 -1.38740583E-05  1.92508600E-05
 -1.91787180E-05  1.74008728E-04  1.27349249E-04 -1.21346720E-04 -7.03786926E-06
  3.73236444E-03 -4.72715155E-04  4.58822335E-04  8.32202353E-04  9.51801537E-06
 -1.43399328E-06  3.32310472E-06 -2.57865285E-06  7.86815177E-06 -5.70123547E-07
  1.67120724E-06  4.04415587E-06 -2.53924777E-06 -4.27528196E-06 -7.61848623E-06
 -2.38724388E-05  9.77446377E-06  2.63976388E-05  2.17776202E-05  1.21846222E-05
 -1.08085338E-05 -5.99823386E-05 -1.09500199E-03 -1.22463856E-03 -3.91397132E-04
 -1.02516977E-04  6.81315317E-06  6.06973225E-06 -5.89220605E-06  8.67125049E-07
 -4.27844390E-06  3.85969216E-07 -1.12971584E-06 -1.94016346E-06  6.24222973E-07
  7.76119184E-07  1.12574619E-05  8.65759838E-06 -2.45070232E-06  5.17576419E-08
 -4.57598776E-05 -8.94655643E-05 -2.16016323E-05  6.05750808E-05 -1.68213027E-03
 -3.47867006E-04 -1.83413256E-04 -1.24126280E-04 -4.36313726E-06 -1.96295128E-06
 -3.47344596E-06 -1.63736810E-06 -1.56496786E-06 -3.29282386E-06  3.14695195E-05
  5.51763737E-05  4.50742632E-05  6.72760971E-06  3.97753691E-09  5.57105927E-06
  1.22971053E-05 -8.39086159E-05  7.87461016E-05  2.26842337E-04  8.16966905E-06
  1.32109290E-05 -1.11548633E-05  2.53566092E-06 -2.31525893E-05 -5.96803640E-05
 -1.41192621E-04 -7.82721013E-07 -1.25349799E-07  1.34221814E-06  5.64586571E-06
 -3.67527362E-05  6.29327943E-05  1.47950437E-04 -1.09317589E-05  1.97804825E-06
  1.41619546E-05 -1.13220272E-06 -6.15184955E-05 -1.17061535E-04  1.22624263E-04
 -6.60971769E-06  1.96567305E-06 -1.59634996E-05  1.01647295E-05 -6.39262107E-05
 -1.83169993E-05  7.85984445E-05 -4.65547471E-06  1.24045790E-05  1.53499127E-05
 -7.84543885E-06  3.93105482E-05 -1.37476420E-04 -3.09624695E-04  4.97100957E-07
 -5.11827782E-06 -6.08081449E-07  4.11609656E-01  6.54076182E-01  1.50039202E-02