3-chloro-1-butene tau = 120                                             
Freq      RB3LYP                                                      6-311++G(d,p)       
Number of atoms                            I               12
Info1-9                                    I   N=           9
          20          20        1002           0           0         100
           6          18        -502
Full Title                                 C   N=           3
3-chloro-1-butene tau = 120         
Route                                      C   N=           7
#P Geom=AllCheck Guess=TCheck SCRF=Check GenChk RB3LYP/6-311
++G(d,p) Freq           
Charge                                     I                0
Multiplicity                               I                1
Number of electrons                        I               48
Number of alpha electrons                  I               24
Number of beta electrons                   I               24
Number of basis functions                  I              167
Number of independent functions            I              167
Number of point charges in /Mol/           I                0
Number of translation vectors              I                0
Atomic numbers                             I   N=          12
           6           6           6           6           1           1
           1           1           1           1           1          17
Nuclear charges                            R   N=          12
  6.00000000E+00  6.00000000E+00  6.00000000E+00  6.00000000E+00  1.00000000E+00
  1.00000000E+00  1.00000000E+00  1.00000000E+00  1.00000000E+00  1.00000000E+00
  1.00000000E+00  1.70000000E+01
Current cartesian coordinates              R   N=          36
  8.85822198E-01  3.31458641E+00  7.54157605E-02  1.11519893E-02  6.61610732E-01
 -6.12949942E-01 -2.27845879E+00 -1.82894864E-01  8.06651364E-01 -4.40790644E+00
 -9.40973462E-01 -2.94638518E-01 -4.58854569E+00 -1.04231777E+00 -2.33577268E+00
  2.59508206E+00  3.82027745E+00 -9.61217203E-01 -6.04413882E+00 -1.49097350E+00
  8.07416935E-01 -2.13263353E+00 -1.15625419E-01  2.85526496E+00 -2.93755651E-01
  4.87233324E-01 -2.64155443E+00  1.27649716E+00  3.46113344E+00  2.09686744E+00
 -6.03669042E-01  4.66706900E+00 -4.02973697E-01  2.61926528E+00 -1.58239820E+00
  4.32409817E-02
Number of symbols in /Mol/                 I                0
Redundant internal dimensions              I   N=           4
          48          11          18          19
Redundant internal coordinate indices      I   N=         192
           1           2           0           0           1           6
           0           0           1          10           0           0
           1          11           0           0           2           3
           0           0           2           9           0           0
           2          12           0           0           3           4
           0           0           3           8           0           0
           4           5           0           0           4           7
           0           0           2           1           6           0
           2           1          10           0           2           1
          11           0           6           1          10           0
           6           1          11           0          10           1
          11           0           1           2           3           0
           1           2           9           0           1           2
          12           0           3           2           9           0
           3           2          12           0           9           2
          12           0           2           3           4           0
           2           3           8           0           4           3
           8           0           3           4           5           0
           3           4           7           0           5           4
           7           0           6           1           2           3
           6           1           2           9           6           1
           2          12          10           1           2           3
          10           1           2           9          10           1
           2          12          11           1           2           3
          11           1           2           9          11           1
           2          12           1           2           3           4
           1           2           3           8           9           2
           3           4           9           2           3           8
          12           2           3           4          12           2
           3           8           2           3           4           5
           2           3           4           7           8           3
           4           5           8           3           4           7
Redundant internal coordinates             R   N=          48
  2.87700804E+00  2.06201372E+00  2.06406634E+00  2.06800624E+00  2.82325611E+00
  2.05878905E+00  3.50263009E+00  2.51437266E+00  2.05489850E+00  2.05161640E+00
  2.04799479E+00  1.93678276E+00  1.93621294E+00  1.90578114E+00  1.89446031E+00
  1.89690026E+00  1.89277579E+00  1.98458312E+00  1.93787005E+00  1.89607466E+00
  1.92837772E+00  1.89444877E+00  1.81379058E+00  2.16129913E+00  2.01966099E+00
  2.10206652E+00  2.12377154E+00  2.11988423E+00  2.03952707E+00  3.10841519E+00
 -9.87201341E-01  9.96994296E-01  1.00091016E+00 -3.09470636E+00 -1.11051073E+00
 -1.08420400E+00  1.10336478E+00  3.08756041E+00  2.15020434E+00 -9.72268342E-01
 -4.24120902E-02  3.11830053E+00 -2.02064998E+00  1.14006264E+00  3.18013355E-02
 -3.11225363E+00 -3.12977132E+00  9.35902064E-03
ZRed-IntVec                                I   N=          48
           0           0           0           0           0           0
           0           0           0           0           0           0
           0           0           0           0           0           0
           0           0           0           0           0           0
           0           0           0           0           0           0
           0           0           0           0           0           0
           0           0           0           0           0           0
           0           0           0           0           0           0
ZRed-FPVec                                 R   N=          48
  0.00000000E+00  0.00000000E+00  0.00000000E+00  0.00000000E+00  0.00000000E+00
  0.00000000E+00  0.00000000E+00  0.00000000E+00  0.00000000E+00  0.00000000E+00
  0.00000000E+00  0.00000000E+00  0.00000000E+00  0.00000000E+00  0.00000000E+00
  0.00000000E+00  0.00000000E+00  0.00000000E+00  0.00000000E+00  0.00000000E+00
  0.00000000E+00  0.00000000E+00  0.00000000E+00  0.00000000E+00  0.00000000E+00
  0.00000000E+00  0.00000000E+00  0.00000000E+00  0.00000000E+00  0.00000000E+00
  0.00000000E+00  0.00000000E+00  0.00000000E+00  0.00000000E+00  0.00000000E+00
  0.00000000E+00  0.00000000E+00  0.00000000E+00  0.00000000E+00  0.00000000E+00
  0.00000000E+00  0.00000000E+00  0.00000000E+00  0.00000000E+00  0.00000000E+00
  0.00000000E+00  0.00000000E+00  0.00000000E+00
ZRed-Constraint1                           R   N=          48
  2.87700804E+00  2.06201372E+00  2.06406634E+00  2.06800624E+00  2.82325611E+00
  2.05878905E+00  3.50263009E+00  2.51437266E+00  2.05489850E+00  2.05161640E+00
  2.04799479E+00  1.93678276E+00  1.93621294E+00  1.90578114E+00  1.89446031E+00
  1.89690026E+00  1.89277579E+00  1.98458312E+00  1.93787005E+00  1.89607466E+00
  1.92837772E+00  1.89444877E+00  1.81379058E+00  2.16129913E+00  2.01966099E+00
  2.10206652E+00  2.12377154E+00  2.11988423E+00  2.03952707E+00  3.10841519E+00
 -9.87201341E-01  9.96994296E-01  1.00091016E+00 -3.09470636E+00 -1.11051073E+00
 -1.08420400E+00  1.10336478E+00  3.08756041E+00  2.15020434E+00 -9.72268342E-01
 -4.24120902E-02  3.11830053E+00 -2.02064998E+00  1.14006264E+00  3.18013355E-02
 -3.11225363E+00 -3.12977132E+00  9.35902064E-03
ZRed-Constraint2                           R   N=          48
  2.87883233E+00  2.07818241E+00  2.08089444E+00  2.08444823E+00  2.82839412E+00
  2.07655247E+00  3.50514131E+00  2.52412260E+00  2.07135749E+00  2.06839017E+00
  2.06477905E+00  1.93695138E+00  1.93600997E+00  1.90721228E+00  1.89289183E+00
  1.89775982E+00  1.89207370E+00  1.98410511E+00  1.93816181E+00  1.89473740E+00
  1.92794907E+00  1.89359367E+00  1.81685458E+00  2.16298898E+00  2.01868102E+00
  2.10131256E+00  2.12151355E+00  2.11843848E+00  2.04323304E+00  3.10435408E+00
 -9.91975822E-01  9.95288558E-01  9.98855619E-01 -3.09747428E+00 -1.11020990E+00
 -1.08617666E+00  1.10067875E+00  3.08794313E+00  2.13995905E+00 -9.80008045E-01
 -5.23319510E-02  3.11088626E+00 -2.03351924E+00  1.12969897E+00  3.17090674E-02
 -3.11062707E+00 -3.13248257E+00  8.36660155E-03
Force Field                                I                0
Atom Types                                 C   N=          12
                                                            
                                                            
                        
Int Atom Types                             I   N=          12
           0           0           0           0           0           0
           0           0           0           0           0           0
MM charges                                 R   N=          12
  0.00000000E+00  0.00000000E+00  0.00000000E+00  0.00000000E+00  0.00000000E+00
  0.00000000E+00  0.00000000E+00  0.00000000E+00  0.00000000E+00  0.00000000E+00
  0.00000000E+00  0.00000000E+00
Integer atomic weights                     I   N=          12
          12          12          12          12           1           1
           1           1           1           1           1          35
Real atomic weights                        R   N=          12
  1.20000000E+01  1.20000000E+01  1.20000000E+01  1.20000000E+01  1.00782504E+00
  1.00782504E+00  1.00782504E+00  1.00782504E+00  1.00782504E+00  1.00782504E+00
  1.00782504E+00  3.49688527E+01
Atom fragment info                         I   N=          12
           0           0           0           0           0           0
           0           0           0           0           0           0
Atom residue num                           I   N=          12
           0           0           0           0           0           0
           0           0           0           0           0           0
Nuclear spins                              I   N=          12
           0           0           0           0           1           1
           1           1           1           1           1           3
Nuclear ZEff                               R   N=          12
 -3.60000000E+00 -3.60000000E+00 -3.60000000E+00 -3.60000000E+00 -1.00000000E+00
 -1.00000000E+00 -1.00000000E+00 -1.00000000E+00 -1.00000000E+00 -1.00000000E+00
 -1.00000000E+00 -1.42400000E+01
Nuclear ZNuc                               R   N=          12
  6.00000000E+00  6.00000000E+00  6.00000000E+00  6.00000000E+00  1.00000000E+00
  1.00000000E+00  1.00000000E+00  1.00000000E+00  1.00000000E+00  1.00000000E+00
  1.00000000E+00  1.70000000E+01
Nuclear QMom                               R   N=          12
  0.00000000E+00  0.00000000E+00  0.00000000E+00  0.00000000E+00  0.00000000E+00
  0.00000000E+00  0.00000000E+00  0.00000000E+00  0.00000000E+00  0.00000000E+00
  0.00000000E+00 -8.16500000E+00
Nuclear GFac                               R   N=          12
  0.00000000E+00  0.00000000E+00  0.00000000E+00  0.00000000E+00  2.79284600E+00
  2.79284600E+00  2.79284600E+00  2.79284600E+00  2.79284600E+00  2.79284600E+00
  2.79284600E+00  8.21874000E-01
MicOpt                                     I   N=          12
          -1          -1          -1          -1          -1          -1
          -1          -1          -1          -1          -1          -1
Number of residues                         I                0
Number of secondary structures             I                0
SymInf integers                            I   N=          26
           1           1           1           1           1           0
           0           0           0           0           0           0
           0           0           0           0           0           0
           0           0           0           0           0           0
           0           0
RotTr to input orientation                 R   N=          12
 -7.76203128E-01 -5.50656463E-01 -3.07060520E-01  1.60565315E-01  2.98318259E-01
 -9.40863962E-01  6.09694582E-01 -7.79604820E-01 -1.43139238E-01  1.59810510E-03
  5.69382772E-03  2.56071975E-03
Number of contracted shells                I               72
Number of primitive shells                 I              126
Pure/Cartesian d shells                    I                0
Pure/Cartesian f shells                    I                0
Highest angular momentum                   I                2
Largest degree of contraction              I                6
Shell types                                I   N=          72
           0          -1          -1          -1          -1          -2
           0          -1          -1          -1          -1          -2
           0          -1          -1          -1          -1          -2
           0          -1          -1          -1          -1          -2
           0           0           0           0           1           0
           0           0           0           1           0           0
           0           0           1           0           0           0
           0           1           0           0           0           0
           1           0           0           0           0           1
           0           0           0           0           1           0
           0           0           0           0           0          -1
           1           1           1           1           1          -2
Number of primitives per shell             I   N=          72
           6           3           1           1           1           1
           6           3           1           1           1           1
           6           3           1           1           1           1
           6           3           1           1           1           1
           3           1           1           1           1           3
           1           1           1           1           3           1
           1           1           1           3           1           1
           1           1           3           1           1           1
           1           3           1           1           1           1
           3           1           1           1           1           6
           3           1           1           1           1           1
           5           2           1           1           1           1
Shell to atom map                          I   N=          72
           1           1           1           1           1           1
           2           2           2           2           2           2
           3           3           3           3           3           3
           4           4           4           4           4           4
           5           5           5           5           5           6
           6           6           6           6           7           7
           7           7           7           8           8           8
           8           8           9           9           9           9
           9          10          10          10          10          10
          11          11          11          11          11          12
          12          12          12          12          12          12
          12          12          12          12          12          12
Primitive exponents                        R   N=         126
  4.56324000E+03  6.82024000E+02  1.54973000E+02  4.44553000E+01  1.30290000E+01
  1.82773000E+00  2.09642000E+01  4.80331000E+00  1.45933000E+00  4.83456000E-01
  1.45585000E-01  4.38000000E-02  6.26000000E-01  4.56324000E+03  6.82024000E+02
  1.54973000E+02  4.44553000E+01  1.30290000E+01  1.82773000E+00  2.09642000E+01
  4.80331000E+00  1.45933000E+00  4.83456000E-01  1.45585000E-01  4.38000000E-02
  6.26000000E-01  4.56324000E+03  6.82024000E+02  1.54973000E+02  4.44553000E+01
  1.30290000E+01  1.82773000E+00  2.09642000E+01  4.80331000E+00  1.45933000E+00
  4.83456000E-01  1.45585000E-01  4.38000000E-02  6.26000000E-01  4.56324000E+03
  6.82024000E+02  1.54973000E+02  4.44553000E+01  1.30290000E+01  1.82773000E+00
  2.09642000E+01  4.80331000E+00  1.45933000E+00  4.83456000E-01  1.45585000E-01
  4.38000000E-02  6.26000000E-01  3.38650000E+01  5.09479000E+00  1.15879000E+00
  3.25840000E-01  1.02741000E-01  3.60000000E-02  7.50000000E-01  3.38650000E+01
  5.09479000E+00  1.15879000E+00  3.25840000E-01  1.02741000E-01  3.60000000E-02
  7.50000000E-01  3.38650000E+01  5.09479000E+00  1.15879000E+00  3.25840000E-01
  1.02741000E-01  3.60000000E-02  7.50000000E-01  3.38650000E+01  5.09479000E+00
  1.15879000E+00  3.25840000E-01  1.02741000E-01  3.60000000E-02  7.50000000E-01
  3.38650000E+01  5.09479000E+00  1.15879000E+00  3.25840000E-01  1.02741000E-01
  3.60000000E-02  7.50000000E-01  3.38650000E+01  5.09479000E+00  1.15879000E+00
  3.25840000E-01  1.02741000E-01  3.60000000E-02  7.50000000E-01  3.38650000E+01
  5.09479000E+00  1.15879000E+00  3.25840000E-01  1.02741000E-01  3.60000000E-02
  7.50000000E-01  1.05819000E+05  1.58720000E+04  3.61965000E+03  1.03080000E+03
  3.39908000E+02  1.24538000E+02  1.24538000E+02  4.95135000E+01  2.08056000E+01
  6.58346000E+00  2.56468000E+00  5.59763000E-01  1.83273000E-01  4.83000000E-02
  5.89776000E+02  1.39849000E+02  4.51413000E+01  1.68733000E+01  2.77152000E+00
  6.74110000E+00  2.77152000E+00  1.02387000E+00  3.81368000E-01  1.09437000E-01
  7.50000000E-01
Contraction coefficients                   R   N=         126
  1.96665025E-03  1.52306019E-02  7.61269097E-02  2.60801033E-01  6.16462078E-01
  2.21006028E-01  1.14660081E-01  9.19999648E-01 -3.03068213E-03  1.00000000E+00
  1.00000000E+00  1.00000000E+00  1.00000000E+00  1.96665025E-03  1.52306019E-02
  7.61269097E-02  2.60801033E-01  6.16462078E-01  2.21006028E-01  1.14660081E-01
  9.19999648E-01 -3.03068213E-03  1.00000000E+00  1.00000000E+00  1.00000000E+00
  1.00000000E+00  1.96665025E-03  1.52306019E-02  7.61269097E-02  2.60801033E-01
  6.16462078E-01  2.21006028E-01  1.14660081E-01  9.19999648E-01 -3.03068213E-03
  1.00000000E+00  1.00000000E+00  1.00000000E+00  1.00000000E+00  1.96665025E-03
  1.52306019E-02  7.61269097E-02  2.60801033E-01  6.16462078E-01  2.21006028E-01
  1.14660081E-01  9.19999648E-01 -3.03068213E-03  1.00000000E+00  1.00000000E+00
  1.00000000E+00  1.00000000E+00  2.54938145E-02  1.90373109E-01  8.52161486E-01
  1.00000000E+00  1.00000000E+00  1.00000000E+00  1.00000000E+00  2.54938145E-02
  1.90373109E-01  8.52161486E-01  1.00000000E+00  1.00000000E+00  1.00000000E+00
  1.00000000E+00  2.54938145E-02  1.90373109E-01  8.52161486E-01  1.00000000E+00
  1.00000000E+00  1.00000000E+00  1.00000000E+00  2.54938145E-02  1.90373109E-01
  8.52161486E-01  1.00000000E+00  1.00000000E+00  1.00000000E+00  1.00000000E+00
  2.54938145E-02  1.90373109E-01  8.52161486E-01  1.00000000E+00  1.00000000E+00
  1.00000000E+00  1.00000000E+00  2.54938145E-02  1.90373109E-01  8.52161486E-01
  1.00000000E+00  1.00000000E+00  1.00000000E+00  1.00000000E+00  2.54938145E-02
  1.90373109E-01  8.52161486E-01  1.00000000E+00  1.00000000E+00  1.00000000E+00
  1.00000000E+00  7.38000247E-04  5.71800191E-03  2.94950099E-02  1.17286039E-01
  3.62949121E-01  5.84149195E-01  1.34176973E-01  6.24249876E-01  2.91755942E-01
  1.00000000E+00  1.00000000E+00  1.00000000E+00  1.00000000E+00  1.00000000E+00
  3.66556935E-03  2.83679194E-02  1.24756603E-01  3.39654631E-01  7.47585963E-01
 -1.57224381E+00  9.92388882E-01  1.00000000E+00  1.00000000E+00  1.00000000E+00
  1.00000000E+00
P(S=P) Contraction coefficients            R   N=         126
  0.00000000E+00  0.00000000E+00  0.00000000E+00  0.00000000E+00  0.00000000E+00
  0.00000000E+00  4.02486927E-02  2.37593957E-01  8.15853851E-01  1.00000000E+00
  1.00000000E+00  1.00000000E+00  0.00000000E+00  0.00000000E+00  0.00000000E+00
  0.00000000E+00  0.00000000E+00  0.00000000E+00  0.00000000E+00  4.02486927E-02
  2.37593957E-01  8.15853851E-01  1.00000000E+00  1.00000000E+00  1.00000000E+00
  0.00000000E+00  0.00000000E+00  0.00000000E+00  0.00000000E+00  0.00000000E+00
  0.00000000E+00  0.00000000E+00  4.02486927E-02  2.37593957E-01  8.15853851E-01
  1.00000000E+00  1.00000000E+00  1.00000000E+00  0.00000000E+00  0.00000000E+00
  0.00000000E+00  0.00000000E+00  0.00000000E+00  0.00000000E+00  0.00000000E+00
  4.02486927E-02  2.37593957E-01  8.15853851E-01  1.00000000E+00  1.00000000E+00
  1.00000000E+00  0.00000000E+00  0.00000000E+00  0.00000000E+00  0.00000000E+00
  0.00000000E+00  0.00000000E+00  0.00000000E+00  0.00000000E+00  0.00000000E+00
  0.00000000E+00  0.00000000E+00  0.00000000E+00  0.00000000E+00  0.00000000E+00
  0.00000000E+00  0.00000000E+00  0.00000000E+00  0.00000000E+00  0.00000000E+00
  0.00000000E+00  0.00000000E+00  0.00000000E+00  0.00000000E+00  0.00000000E+00
  0.00000000E+00  0.00000000E+00  0.00000000E+00  0.00000000E+00  0.00000000E+00
  0.00000000E+00  0.00000000E+00  0.00000000E+00  0.00000000E+00  0.00000000E+00
  0.00000000E+00  0.00000000E+00  0.00000000E+00  0.00000000E+00  0.00000000E+00
  0.00000000E+00  0.00000000E+00  0.00000000E+00  0.00000000E+00  0.00000000E+00
  0.00000000E+00  0.00000000E+00  0.00000000E+00  0.00000000E+00  0.00000000E+00
  0.00000000E+00  0.00000000E+00  0.00000000E+00  0.00000000E+00  0.00000000E+00
  0.00000000E+00  0.00000000E+00  0.00000000E+00  0.00000000E+00  0.00000000E+00
  0.00000000E+00  0.00000000E+00  0.00000000E+00  0.00000000E+00  1.00000000E+00
  0.00000000E+00  0.00000000E+00  0.00000000E+00  0.00000000E+00  0.00000000E+00
  0.00000000E+00  0.00000000E+00  0.00000000E+00  0.00000000E+00  0.00000000E+00
  0.00000000E+00
Coordinates of each shell                  R   N=         216
  8.85822198E-01  3.31458641E+00  7.54157605E-02  8.85822198E-01  3.31458641E+00
  7.54157605E-02  8.85822198E-01  3.31458641E+00  7.54157605E-02  8.85822198E-01
  3.31458641E+00  7.54157605E-02  8.85822198E-01  3.31458641E+00  7.54157605E-02
  8.85822198E-01  3.31458641E+00  7.54157605E-02  1.11519893E-02  6.61610732E-01
 -6.12949942E-01  1.11519893E-02  6.61610732E-01 -6.12949942E-01  1.11519893E-02
  6.61610732E-01 -6.12949942E-01  1.11519893E-02  6.61610732E-01 -6.12949942E-01
  1.11519893E-02  6.61610732E-01 -6.12949942E-01  1.11519893E-02  6.61610732E-01
 -6.12949942E-01 -2.27845879E+00 -1.82894864E-01  8.06651364E-01 -2.27845879E+00
 -1.82894864E-01  8.06651364E-01 -2.27845879E+00 -1.82894864E-01  8.06651364E-01
 -2.27845879E+00 -1.82894864E-01  8.06651364E-01 -2.27845879E+00 -1.82894864E-01
  8.06651364E-01 -2.27845879E+00 -1.82894864E-01  8.06651364E-01 -4.40790644E+00
 -9.40973462E-01 -2.94638518E-01 -4.40790644E+00 -9.40973462E-01 -2.94638518E-01
 -4.40790644E+00 -9.40973462E-01 -2.94638518E-01 -4.40790644E+00 -9.40973462E-01
 -2.94638518E-01 -4.40790644E+00 -9.40973462E-01 -2.94638518E-01 -4.40790644E+00
 -9.40973462E-01 -2.94638518E-01 -4.58854569E+00 -1.04231777E+00 -2.33577268E+00
 -4.58854569E+00 -1.04231777E+00 -2.33577268E+00 -4.58854569E+00 -1.04231777E+00
 -2.33577268E+00 -4.58854569E+00 -1.04231777E+00 -2.33577268E+00 -4.58854569E+00
 -1.04231777E+00 -2.33577268E+00  2.59508206E+00  3.82027745E+00 -9.61217203E-01
  2.59508206E+00  3.82027745E+00 -9.61217203E-01  2.59508206E+00  3.82027745E+00
 -9.61217203E-01  2.59508206E+00  3.82027745E+00 -9.61217203E-01  2.59508206E+00
  3.82027745E+00 -9.61217203E-01 -6.04413882E+00 -1.49097350E+00  8.07416935E-01
 -6.04413882E+00 -1.49097350E+00  8.07416935E-01 -6.04413882E+00 -1.49097350E+00
  8.07416935E-01 -6.04413882E+00 -1.49097350E+00  8.07416935E-01 -6.04413882E+00
 -1.49097350E+00  8.07416935E-01 -2.13263353E+00 -1.15625419E-01  2.85526496E+00
 -2.13263353E+00 -1.15625419E-01  2.85526496E+00 -2.13263353E+00 -1.15625419E-01
  2.85526496E+00 -2.13263353E+00 -1.15625419E-01  2.85526496E+00 -2.13263353E+00
 -1.15625419E-01  2.85526496E+00 -2.93755651E-01  4.87233324E-01 -2.64155443E+00
 -2.93755651E-01  4.87233324E-01 -2.64155443E+00 -2.93755651E-01  4.87233324E-01
 -2.64155443E+00 -2.93755651E-01  4.87233324E-01 -2.64155443E+00 -2.93755651E-01
  4.87233324E-01 -2.64155443E+00  1.27649716E+00  3.46113344E+00  2.09686744E+00
  1.27649716E+00  3.46113344E+00  2.09686744E+00  1.27649716E+00  3.46113344E+00
  2.09686744E+00  1.27649716E+00  3.46113344E+00  2.09686744E+00  1.27649716E+00
  3.46113344E+00  2.09686744E+00 -6.03669042E-01  4.66706900E+00 -4.02973697E-01
 -6.03669042E-01  4.66706900E+00 -4.02973697E-01 -6.03669042E-01  4.66706900E+00
 -4.02973697E-01 -6.03669042E-01  4.66706900E+00 -4.02973697E-01 -6.03669042E-01
  4.66706900E+00 -4.02973697E-01  2.61926528E+00 -1.58239820E+00  4.32409817E-02
  2.61926528E+00 -1.58239820E+00  4.32409817E-02  2.61926528E+00 -1.58239820E+00
  4.32409817E-02  2.61926528E+00 -1.58239820E+00  4.32409817E-02  2.61926528E+00
 -1.58239820E+00  4.32409817E-02  2.61926528E+00 -1.58239820E+00  4.32409817E-02
  2.61926528E+00 -1.58239820E+00  4.32409817E-02  2.61926528E+00 -1.58239820E+00
  4.32409817E-02  2.61926528E+00 -1.58239820E+00  4.32409817E-02  2.61926528E+00
 -1.58239820E+00  4.32409817E-02  2.61926528E+00 -1.58239820E+00  4.32409817E-02
  2.61926528E+00 -1.58239820E+00  4.32409817E-02  2.61926528E+00 -1.58239820E+00
  4.32409817E-02
Constraint Structure                       R   N=          36
  8.85822198E-01  3.31458641E+00  7.54157605E-02  1.11519893E-02  6.61610732E-01
 -6.12949942E-01 -2.27845879E+00 -1.82894864E-01  8.06651364E-01 -4.40790644E+00
 -9.40973462E-01 -2.94638518E-01 -4.58854569E+00 -1.04231777E+00 -2.33577268E+00
  2.59508206E+00  3.82027745E+00 -9.61217203E-01 -6.04413882E+00 -1.49097350E+00
  8.07416935E-01 -2.13263353E+00 -1.15625419E-01  2.85526496E+00 -2.93755651E-01
  4.87233324E-01 -2.64155443E+00  1.27649716E+00  3.46113344E+00  2.09686744E+00
 -6.03669042E-01  4.66706900E+00 -4.02973697E-01  2.61926528E+00 -1.58239820E+00
  4.32409817E-02
Num ILSW                                   I              100
ILSW                                       I   N=         100
           0           0           0           0           2           0
           0           0           0           0         402          -1
           5           0           0           0           0           0
           0           0           0           0           1           0
           1           0           0           0           0           0
           0           0      100000           0          -1           0
           0           0           0           0           0           0
           0           0           0           1           0           0
           0           0           1           0           0           0
           0           0           4          41           0           0
           0           0           5           0           0           0
           0           0           0           0           0           0
           0           0           0           0           0           0
           0           0           0           0           0           0
           0           0           0           0           0           0
           0           0           0           0           0           0
           0           0           0           0
Num RLSW                                   I               41
RLSW                                       R   N=          41
  8.00000000E-01  7.20000000E-01  1.00000000E+00  8.10000000E-01  2.00000000E-01
  0.00000000E+00  0.00000000E+00  1.00000000E+00  0.00000000E+00  0.00000000E+00
  0.00000000E+00  0.00000000E+00  1.00000000E+00  0.00000000E+00  0.00000000E+00
  0.00000000E+00  0.00000000E+00  1.00000000E+00  0.00000000E+00  0.00000000E+00
  0.00000000E+00  0.00000000E+00  1.00000000E+00  0.00000000E+00  0.00000000E+00
  0.00000000E+00  0.00000000E+00  1.00000000E+00  0.00000000E+00  0.00000000E+00
  0.00000000E+00  0.00000000E+00  0.00000000E+00  0.00000000E+00  0.00000000E+00
  0.00000000E+00  0.00000000E+00  0.00000000E+00  1.00000000E+00  1.00000000E+00
  0.00000000E+00
MxBond                                     I                4
NBond                                      I   N=          12
           4           4           3           3           1           1
           1           1           1           1           1           1
IBond                                      I   N=          48
           2           6          10          11           1           3
           9          12           2           4           8           0
           3           5           7           0           4           0
           0           0           1           0           0           0
           4           0           0           0           3           0
           0           0           2           0           0           0
           1           0           0           0           1           0
           0           0           2           0           0           0
RBond                                      R   N=          48
  1.00000000E+00  1.00000000E+00  1.00000000E+00  1.00000000E+00  1.00000000E+00
  1.00000000E+00  1.00000000E+00  1.00000000E+00  1.00000000E+00  2.00000000E+00
  1.00000000E+00  0.00000000E+00  2.00000000E+00  1.00000000E+00  1.00000000E+00
  0.00000000E+00  1.00000000E+00  0.00000000E+00  0.00000000E+00  0.00000000E+00
  1.00000000E+00  0.00000000E+00  0.00000000E+00  0.00000000E+00  1.00000000E+00