 Entering Gaussian System, Link 0=g09
 Input=input.dat
 Output=output.dat
 Initial command:
 /cerebro/home/software/apps/g09/l1.exe /scratch/crawdad/Gau-29552.inp -scrdir=/scratch/crawdad/
 Entering Link 1 = /cerebro/home/software/apps/g09/l1.exe PID=     29553.
  
 Copyright (c) 1988,1990,1992,1993,1995,1998,2003,2009, Gaussian, Inc.
                  All Rights Reserved.
  
 This is part of the Gaussian(R) 09 program.  It is based on
 the Gaussian(R) 03 system (copyright 2003, Gaussian, Inc.),
 the Gaussian(R) 98 system (copyright 1998, Gaussian, Inc.),
 the Gaussian(R) 94 system (copyright 1995, Gaussian, Inc.),
 the Gaussian 92(TM) system (copyright 1992, Gaussian, Inc.),
 the Gaussian 90(TM) system (copyright 1990, Gaussian, Inc.),
 the Gaussian 88(TM) system (copyright 1988, Gaussian, Inc.),
 the Gaussian 86(TM) system (copyright 1986, Carnegie Mellon
 University), and the Gaussian 82(TM) system (copyright 1983,
 Carnegie Mellon University). Gaussian is a federally registered
 trademark of Gaussian, Inc.
  
 This software contains proprietary and confidential information,
 including trade secrets, belonging to Gaussian, Inc.
  
 This software is provided under written license and may be
 used, copied, transmitted, or stored only in accord with that
 written license.
  
 The following legend is applicable only to US Government
 contracts under FAR:
  
                    RESTRICTED RIGHTS LEGEND
  
 Use, reproduction and disclosure by the US Government is
 subject to restrictions as set forth in subparagraphs (a)
 and (c) of the Commercial Computer Software - Restricted
 Rights clause in FAR 52.227-19.
  
 Gaussian, Inc.
 340 Quinnipiac St., Bldg. 40, Wallingford CT 06492
  
  
 ---------------------------------------------------------------
 Warning -- This program may not be used in any manner that
 competes with the business of Gaussian, Inc. or will provide
 assistance to any competitor of Gaussian, Inc.  The licensee
 of this program is prohibited from giving any competitor of
 Gaussian, Inc. access to this program.  By using this program,
 the user acknowledges that Gaussian, Inc. is engaged in the
 business of creating and licensing software in the field of
 computational chemistry and represents and warrants to the
 licensee that it is not a competitor of Gaussian, Inc. and that
 it will not use this program in any manner prohibited above.
 ---------------------------------------------------------------
  

 Cite this work as:
 Gaussian 09, Revision A.02,
 M. J. Frisch, G. W. Trucks, H. B. Schlegel, G. E. Scuseria, 
 M. A. Robb, J. R. Cheeseman, G. Scalmani, V. Barone, B. Mennucci, 
 G. A. Petersson, H. Nakatsuji, M. Caricato, X. Li, H. P. Hratchian, 
 A. F. Izmaylov, J. Bloino, G. Zheng, J. L. Sonnenberg, M. Hada, 
 M. Ehara, K. Toyota, R. Fukuda, J. Hasegawa, M. Ishida, T. Nakajima, 
 Y. Honda, O. Kitao, H. Nakai, T. Vreven, J. A. Montgomery, Jr., 
 J. E. Peralta, F. Ogliaro, M. Bearpark, J. J. Heyd, E. Brothers, 
 K. N. Kudin, V. N. Staroverov, R. Kobayashi, J. Normand, 
 K. Raghavachari, A. Rendell, J. C. Burant, S. S. Iyengar, J. Tomasi, 
 M. Cossi, N. Rega, J. M. Millam, M. Klene, J. E. Knox, J. B. Cross, 
 V. Bakken, C. Adamo, J. Jaramillo, R. Gomperts, R. E. Stratmann, 
 O. Yazyev, A. J. Austin, R. Cammi, C. Pomelli, J. W. Ochterski, 
 R. L. Martin, K. Morokuma, V. G. Zakrzewski, G. A. Voth, 
 P. Salvador, J. J. Dannenberg, S. Dapprich, A. D. Daniels, 
 O. Farkas, J. B. Foresman, J. V. Ortiz, J. Cioslowski, 
 and D. J. Fox, Gaussian, Inc., Wallingford CT, 2009.
 
 ******************************************
 Gaussian 09:  EM64L-G09RevA.02 11-Jun-2009
                10-Jul-2013 
 ******************************************
 %chk=3c1b
 %mem=2000mb
 ----------------------------------------------------------------------
 #P B3LYP/6-311++G** OPT(verytight) scf(conver=12) int(ultrafine) FREQ(
 hpmodes)
 ----------------------------------------------------------------------
 1/7=1,14=-1,18=20,19=15,26=3,38=1/1,3;
 2/9=110,12=2,17=6,18=5,40=1/2;
 3/5=4,6=6,7=1111,11=2,16=1,25=1,30=1,71=1,74=-5,75=-5/1,2,3;
 4//1;
 5/5=2,6=12,38=5/2;
 6/7=2,8=2,9=2,10=2,28=1/1;
 7//1,2,3,16;
 1/7=1,14=-1,18=20,19=15/3(2);
 2/9=110/2;
 99//99;
 2/9=110/2;
 3/5=4,6=6,7=1111,11=2,16=1,25=1,30=1,71=1,74=-5,75=-5/1,2,3;
 4/5=5,16=3/1;
 5/5=2,6=12,38=5/2;
 7//1,2,3,16;
 1/7=1,14=-1,18=20,19=15/3(-5);
 2/9=110/2;
 6/7=2,8=2,9=2,10=2,19=2,28=1/1;
 99/9=1/99;
 Leave Link    1 at Wed Jul 10 12:52:08 2013, MaxMem=  262144000 cpu:       0.0
 (Enter /cerebro/home/software/apps/g09/l101.exe)
 ---------------------------
 3-chloro-1-butene tau = 120
 ---------------------------
 Symbolic Z-matrix:
 Charge =  0 Multiplicity = 1
 C                    0    -0.05798   0.23841  -1.79879 
 C                    0    -0.14921   0.35484  -0.28258 
 C                    0     1.17902   0.30247   0.40536 
 C                    0     1.64045   1.2638    1.20975 
 H                    0     1.04535   2.15333   1.43914 
 H                    0    -1.05859   0.24389  -2.25502 
 H                    0     2.62978   1.19556   1.66846 
 H                    0     1.78776  -0.58453   0.19527 
 H                    0    -0.69869   1.2599    0.0114 
 H                    0     0.45359  -0.69166  -2.09174 
 H                    0     0.51698   1.09203  -2.1956 
 Cl                   0    -1.19705  -1.0368    0.35445 
 
 NAtoms=     12 NQM=     12 NQMF=      0 NMic=      0 NMicF=      0 NTot=     12.
                    Isotopes and Nuclear Properties:
 (Nuclear quadrupole moments (NQMom) in fm**2, nuclear magnetic moments (NMagM)
  in nuclear magnetons)

  Atom         1           2           3           4           5           6           7           8           9          10
 IAtWgt=          12          12          12          12           1           1           1           1           1           1
 AtmWgt=  12.0000000  12.0000000  12.0000000  12.0000000   1.0078250   1.0078250   1.0078250   1.0078250   1.0078250   1.0078250
 NucSpn=           0           0           0           0           1           1           1           1           1           1
 AtZEff=   0.0000000   0.0000000   0.0000000   0.0000000   0.0000000   0.0000000   0.0000000   0.0000000   0.0000000   0.0000000
 NQMom=    0.0000000   0.0000000   0.0000000   0.0000000   0.0000000   0.0000000   0.0000000   0.0000000   0.0000000   0.0000000
 NMagM=    0.0000000   0.0000000   0.0000000   0.0000000   2.7928460   2.7928460   2.7928460   2.7928460   2.7928460   2.7928460

  Atom        11          12
 IAtWgt=           1          35
 AtmWgt=   1.0078250  34.9688527
 NucSpn=           1           3
 AtZEff=   0.0000000   0.0000000
 NQMom=    0.0000000  -8.1650000
 NMagM=    2.7928460   0.8218740
 Leave Link  101 at Wed Jul 10 12:52:08 2013, MaxMem=  262144000 cpu:       0.2
 (Enter /cerebro/home/software/apps/g09/l103.exe)

 GradGradGradGradGradGradGradGradGradGradGradGradGradGradGradGradGradGrad
 Berny optimization.
 Initialization pass.
                           ----------------------------
                           !    Initial Parameters    !
                           ! (Angstroms and Degrees)  !
 --------------------------                            --------------------------
 ! Name  Definition              Value          Derivative Info.                !
 --------------------------------------------------------------------------------
 ! R1    R(1,2)                  1.5234         estimate D2E/DX2                !
 ! R2    R(1,6)                  1.0997         estimate D2E/DX2                !
 ! R3    R(1,10)                 1.1012         estimate D2E/DX2                !
 ! R4    R(1,11)                 1.103          estimate D2E/DX2                !
 ! R5    R(2,3)                  1.4967         estimate D2E/DX2                !
 ! R6    R(2,9)                  1.0989         estimate D2E/DX2                !
 ! R7    R(2,12)                 1.8548         estimate D2E/DX2                !
 ! R8    R(3,4)                  1.3357         estimate D2E/DX2                !
 ! R9    R(3,8)                  1.0961         estimate D2E/DX2                !
 ! R10   R(4,5)                  1.0945         estimate D2E/DX2                !
 ! R11   R(4,7)                  1.0926         estimate D2E/DX2                !
 ! A1    A(2,1,6)              110.9791         estimate D2E/DX2                !
 ! A2    A(2,1,10)             110.9252         estimate D2E/DX2                !
 ! A3    A(2,1,11)             109.2752         estimate D2E/DX2                !
 ! A4    A(6,1,10)             108.4547         estimate D2E/DX2                !
 ! A5    A(6,1,11)             108.7336         estimate D2E/DX2                !
 ! A6    A(10,1,11)            108.4078         estimate D2E/DX2                !
 ! A7    A(1,2,3)              113.6808         estimate D2E/DX2                !
 ! A8    A(1,2,9)              111.0485         estimate D2E/DX2                !
 ! A9    A(1,2,12)             108.5605         estimate D2E/DX2                !
 ! A10   A(3,2,9)              110.4633         estimate D2E/DX2                !
 ! A11   A(3,2,12)             108.4949         estimate D2E/DX2                !
 ! A12   A(9,2,12)             104.0981         estimate D2E/DX2                !
 ! A13   A(2,3,4)              123.9301         estimate D2E/DX2                !
 ! A14   A(2,3,8)              115.6619         estimate D2E/DX2                !
 ! A15   A(4,3,8)              120.3963         estimate D2E/DX2                !
 ! A16   A(3,4,5)              121.5538         estimate D2E/DX2                !
 ! A17   A(3,4,7)              121.3776         estimate D2E/DX2                !
 ! A18   A(5,4,7)              117.0686         estimate D2E/DX2                !
 ! D1    D(6,1,2,3)            177.8664         estimate D2E/DX2                !
 ! D2    D(6,1,2,9)            -56.836          estimate D2E/DX2                !
 ! D3    D(6,1,2,12)            57.0258         estimate D2E/DX2                !
 ! D4    D(10,1,2,3)            57.2302         estimate D2E/DX2                !
 ! D5    D(10,1,2,9)          -177.4722         estimate D2E/DX2                !
 ! D6    D(10,1,2,12)          -63.6103         estimate D2E/DX2                !
 ! D7    D(11,1,2,3)           -62.2333         estimate D2E/DX2                !
 ! D8    D(11,1,2,9)            63.0642         estimate D2E/DX2                !
 ! D9    D(11,1,2,12)          176.9261         estimate D2E/DX2                !
 ! D10   D(1,2,3,4)            122.6106         estimate D2E/DX2                !
 ! D11   D(1,2,3,8)            -56.1503         estimate D2E/DX2                !
 ! D12   D(9,2,3,4)             -2.9984         estimate D2E/DX2                !
 ! D13   D(9,2,3,8)            178.2407         estimate D2E/DX2                !
 ! D14   D(12,2,3,4)          -116.5121         estimate D2E/DX2                !
 ! D15   D(12,2,3,8)            64.727          estimate D2E/DX2                !
 ! D16   D(2,3,4,5)              1.8168         estimate D2E/DX2                !
 ! D17   D(2,3,4,7)           -178.2258         estimate D2E/DX2                !
 ! D18   D(8,3,4,5)           -179.478          estimate D2E/DX2                !
 ! D19   D(8,3,4,7)              0.4794         estimate D2E/DX2                !
 --------------------------------------------------------------------------------
 Trust Radius=3.00D-01 FncErr=1.00D-07 GrdErr=1.00D-06
 Number of steps in this run=  58 maximum allowed number of steps= 100.
 GradGradGradGradGradGradGradGradGradGradGradGradGradGradGradGradGradGrad

 Leave Link  103 at Wed Jul 10 12:52:08 2013, MaxMem=  262144000 cpu:       0.0
 (Enter /cerebro/home/software/apps/g09/l202.exe)
                          Input orientation:                          
 ---------------------------------------------------------------------
 Center     Atomic      Atomic             Coordinates (Angstroms)
 Number     Number       Type             X           Y           Z
 ---------------------------------------------------------------------
      1          6           0       -0.057981    0.238407   -1.798792
      2          6           0       -0.149206    0.354837   -0.282577
      3          6           0        1.179018    0.302470    0.405358
      4          6           0        1.640448    1.263799    1.209749
      5          1           0        1.045350    2.153331    1.439141
      6          1           0       -1.058594    0.243894   -2.255018
      7          1           0        2.629777    1.195564    1.668463
      8          1           0        1.787761   -0.584527    0.195269
      9          1           0       -0.698692    1.259903    0.011402
     10          1           0        0.453593   -0.691664   -2.091738
     11          1           0        0.516976    1.092029   -2.195598
     12         17           0       -1.197050   -1.036800    0.354450
 ---------------------------------------------------------------------
                    Distance matrix (angstroms):
                    1          2          3          4          5
     1  C    0.000000
     2  C    1.523412   0.000000
     3  C    2.528349   1.496722   0.000000
     4  C    3.603804   2.501221   1.335708   0.000000
     5  H    3.920266   2.761495   2.124209   1.094545   0.000000
     6  H    1.099727   2.174815   3.476772   4.508841   4.660401
     7  H    4.490218   3.498018   2.120791   1.092634   1.865561
     8  H    2.839060   2.205126   1.096115   2.113571   3.097460
     9  H    2.175032   1.098864   2.144219   2.628236   2.424527
    10  H    1.101162   2.175223   2.783888   4.016501   4.572885
    11  H    1.103042   2.155667   2.797620   3.589998   3.823201
    12  Cl   2.749560   1.854841   2.727991   3.751757   4.047449
                    6          7          8          9         10
     6  H    0.000000
     7  H    5.468407   0.000000
     8  H    3.846027   2.459272   0.000000
     9  H    2.509674   3.718696   3.101319   0.000000
    10  H    1.785676   4.736721   2.649884   3.091856   0.000000
    11  H    1.790331   4.405182   3.184648   2.525248   1.787839
    12  Cl   2.910098   4.621113   3.023075   2.375055   2.971124
                   11         12
    11  H    0.000000
    12  Cl   3.737987   0.000000
 Stoichiometry    C4H7Cl
 Framework group  C1[X(C4H7Cl)]
 Deg. of freedom    30
 Full point group                 C1      NOp   1
 Largest Abelian subgroup         C1      NOp   1
 Largest concise Abelian subgroup C1      NOp   1
                         Standard orientation:                         
 ---------------------------------------------------------------------
 Center     Atomic      Atomic             Coordinates (Angstroms)
 Number     Number       Type             X           Y           Z
 ---------------------------------------------------------------------
      1          6           0        0.466825    1.753890    0.042391
      2          6           0        0.006695    0.349069   -0.325772
      3          6           0       -1.205402   -0.103080    0.426929
      4          6           0       -2.341203   -0.496251   -0.155726
      5          1           0       -2.441670   -0.537863   -1.244856
      6          1           0        1.379617    2.025954   -0.507328
      7          1           0       -3.211377   -0.791370    0.435502
      8          1           0       -1.122848   -0.076689    1.519613
      9          1           0       -0.157569    0.258646   -1.408520
     10          1           0        0.673955    1.829793    1.121230
     11          1           0       -0.327880    2.475536   -0.211328
     12         17           0        1.390958   -0.835634    0.021691
 ---------------------------------------------------------------------
 Rotational constants (GHZ):      5.5558526      2.7277452      1.9946921
 Leave Link  202 at Wed Jul 10 12:52:09 2013, MaxMem=  262144000 cpu:       0.0
 (Enter /cerebro/home/software/apps/g09/l301.exe)
 Standard basis: 6-311++G(d,p) (5D, 7F)
 Ernie: Thresh=  0.10000D-02 Tol=  0.10000D-05 Strict=F.
 There are   167 symmetry adapted basis functions of A   symmetry.
 Integral buffers will be    131072 words long.
 Raffenetti 2 integral format.
 Two-electron integral symmetry is turned on.
   167 basis functions,   260 primitive gaussians,   172 cartesian basis functions
    24 alpha electrons       24 beta electrons
       nuclear repulsion energy       211.1525966729 Hartrees.
 IExCor=  402 DFT=T Ex+Corr=B3LYP ExCW=0 ScaHFX=  0.200000
 ScaDFX=  0.800000  0.720000  1.000000  0.810000 ScalE2=  1.000000  1.000000
 IRadAn=      5 IRanWt=     -1 IRanGd=            0 ICorTp=0
 NAtoms=   12 NActive=   12 NUniq=   12 SFac= 7.50D-01 NAtFMM=   80 NAOKFM=F Big=F
 Leave Link  301 at Wed Jul 10 12:52:09 2013, MaxMem=  262144000 cpu:       0.1
 (Enter /cerebro/home/software/apps/g09/l302.exe)
 NPDir=0 NMtPBC=     1 NCelOv=     1 NCel=       1 NClECP=     1 NCelD=      1
         NCelK=      1 NCelE2=     1 NClLst=     1 CellRange=     0.0.
 One-electron integrals computed using PRISM.
 NBasis=   167 RedAO= T  NBF=   167
 NBsUse=   167 1.00D-06 NBFU=   167
 Precomputing XC quadrature grid using
 IXCGrd= 2 IRadAn=           5 IRanWt=          -1 IRanGd=           0 AccXCQ= 1.00D-10.
 NRdTot=    1019 NPtTot=      274288 NUsed=      281590 NTot=      281622
 NSgBfM=   172   172   172   172   172 NAtAll=    12    12.
 Leave Link  302 at Wed Jul 10 12:52:09 2013, MaxMem=  262144000 cpu:       0.7
 (Enter /cerebro/home/software/apps/g09/l303.exe)
 DipDrv:  MaxL=1.
 Leave Link  303 at Wed Jul 10 12:52:09 2013, MaxMem=  262144000 cpu:       0.0
 (Enter /cerebro/home/software/apps/g09/l401.exe)
 Harris functional with IExCor=  402 diagonalized for initial guess.
 ExpMin= 3.60D-02 ExpMax= 1.06D+05 ExpMxC= 3.62D+03 IAcc=3 IRadAn=         5 AccDes= 0.00D+00
 HarFok:  IExCor=  402 AccDes= 0.00D+00 IRadAn=         5 IDoV= 1
 ScaDFX=  1.000000  1.000000  1.000000  1.000000
 FoFCou: FMM=F IPFlag=           0 FMFlag=      100000 FMFlg1=           0
         NFxFlg=           0 DoJE=T BraDBF=F KetDBF=T FulRan=T
         Omega=  0.000000  0.000000  1.000000  0.000000  0.000000 ICntrl=     500 IOpCl=  0
         NMat0=    1 NMatS0=    1 NMatT0=    0 NMatD0=    1 NMtDS0=    0 NMtDT0=    0
         I1Cent=           4 NGrid=           0.
 Petite list used in FoFCou.
 Harris En= -616.909214076142    
 Initial guess orbital symmetries:
       Occupied  (A) (A) (A) (A) (A) (A) (A) (A) (A) (A) (A) (A)
                 (A) (A) (A) (A) (A) (A) (A) (A) (A) (A) (A) (A)
       Virtual   (A) (A) (A) (A) (A) (A) (A) (A) (A) (A) (A) (A)
                 (A) (A) (A) (A) (A) (A) (A) (A) (A) (A) (A) (A)
                 (A) (A) (A) (A) (A) (A) (A) (A) (A) (A) (A) (A)
                 (A) (A) (A) (A) (A) (A) (A) (A) (A) (A) (A) (A)
                 (A) (A) (A) (A) (A) (A) (A) (A) (A) (A) (A) (A)
                 (A) (A) (A) (A) (A) (A) (A) (A) (A) (A) (A) (A)
                 (A) (A) (A) (A) (A) (A) (A) (A) (A) (A) (A) (A)
                 (A) (A) (A) (A) (A) (A) (A) (A) (A) (A) (A) (A)
                 (A) (A) (A) (A) (A) (A) (A) (A) (A) (A) (A) (A)
                 (A) (A) (A) (A) (A) (A) (A) (A) (A) (A) (A) (A)
                 (A) (A) (A) (A) (A) (A) (A) (A) (A) (A) (A) (A)
                 (A) (A) (A) (A) (A) (A) (A) (A) (A) (A) (A)
 The electronic state of the initial guess is 1-A.
 Leave Link  401 at Wed Jul 10 12:52:17 2013, MaxMem=  262144000 cpu:       7.6
 (Enter /cerebro/home/software/apps/g09/l502.exe)
 Closed shell SCF:
 Requested convergence on RMS density matrix=1.00D-12 within 128 cycles.
 Requested convergence on MAX density matrix=1.00D-10.
 Requested convergence on             energy=1.00D-10.
 No special actions if energy rises.
 Using DIIS extrapolation, IDIIS=  1040.
 Integral symmetry usage will be decided dynamically.
       281469 words used for storage of precomputed grid.
 Keep R1 ints in memory in canonical form, NReq=113664361.
 IEnd=      390694 IEndB=      390694 NGot=   262144000 MDV=   151114794
 LenX=   151114794 LenY=   151084769
 Symmetry not used in FoFDir.
 MinBra= 0 MaxBra= 2 Meth= 1.
 IRaf=       0 NMat=   1 IRICut=       1 DoRegI=T DoRafI=F ISym2E= 0 JSym2E=0.

 Cycle   1  Pass 1  IDiag  1:
 E= -616.727522419050    
 DIIS: error= 2.28D-02 at cycle   1 NSaved=   1.
 NSaved= 1 IEnMin= 1 EnMin= -616.727522419050     IErMin= 1 ErrMin= 2.28D-02
 ErrMax= 2.28D-02 EMaxC= 1.00D-01 BMatC= 2.00D-01 BMatP= 2.00D-01
 IDIUse=3 WtCom= 7.72D-01 WtEn= 2.28D-01
 Coeff-Com:  0.100D+01
 Coeff-En:   0.100D+01
 Coeff:      0.100D+01
 Gap=     0.389 Goal=   None    Shift=    0.000
 GapD=    0.389 DampG=1.000 DampE=0.500 DampFc=0.5000 IDamp=-1.
 Damping current iteration by 5.00D-01
 RMSDP=6.33D-03 MaxDP=1.45D-01              OVMax= 2.18D-01

 Cycle   2  Pass 1  IDiag  1:
 E= -616.796761845117     Delta-E=       -0.069239426067 Rises=F Damp=T
 DIIS: error= 5.83D-03 at cycle   2 NSaved=   2.
 NSaved= 2 IEnMin= 2 EnMin= -616.796761845117     IErMin= 2 ErrMin= 5.83D-03
 ErrMax= 5.83D-03 EMaxC= 1.00D-01 BMatC= 1.28D-02 BMatP= 2.00D-01
 IDIUse=3 WtCom= 9.42D-01 WtEn= 5.83D-02
 Coeff-Com:  0.399D-01 0.960D+00
 Coeff-En:   0.184D+00 0.816D+00
 Coeff:      0.483D-01 0.952D+00
 Gap=     0.285 Goal=   None    Shift=    0.000
 RMSDP=4.28D-03 MaxDP=1.94D-01 DE=-6.92D-02 OVMax= 1.23D-01

 Cycle   3  Pass 1  IDiag  1:
 E= -616.889524505619     Delta-E=       -0.092762660502 Rises=F Damp=F
 DIIS: error= 6.12D-03 at cycle   3 NSaved=   3.
 NSaved= 3 IEnMin= 3 EnMin= -616.889524505619     IErMin= 2 ErrMin= 5.83D-03
 ErrMax= 6.12D-03 EMaxC= 1.00D-01 BMatC= 5.18D-03 BMatP= 1.28D-02
 IDIUse=3 WtCom= 9.39D-01 WtEn= 6.12D-02
 Coeff-Com: -0.633D-01 0.348D+00 0.715D+00
 Coeff-En:   0.000D+00 0.000D+00 0.100D+01
 Coeff:     -0.594D-01 0.327D+00 0.733D+00
 Gap=     0.257 Goal=   None    Shift=    0.000
 RMSDP=1.84D-03 MaxDP=5.88D-02 DE=-9.28D-02 OVMax= 2.75D-02

 Cycle   4  Pass 1  IDiag  1:
 E= -616.893406868916     Delta-E=       -0.003882363298 Rises=F Damp=F
 DIIS: error= 3.35D-03 at cycle   4 NSaved=   4.
 NSaved= 4 IEnMin= 4 EnMin= -616.893406868916     IErMin= 4 ErrMin= 3.35D-03
 ErrMax= 3.35D-03 EMaxC= 1.00D-01 BMatC= 2.01D-03 BMatP= 5.18D-03
 IDIUse=3 WtCom= 9.67D-01 WtEn= 3.35D-02
 Coeff-Com: -0.383D-01 0.127D+00 0.448D+00 0.464D+00
 Coeff-En:   0.000D+00 0.000D+00 0.251D+00 0.749D+00
 Coeff:     -0.370D-01 0.123D+00 0.441D+00 0.473D+00
 Gap=     0.246 Goal=   None    Shift=    0.000
 RMSDP=5.62D-04 MaxDP=1.76D-02 DE=-3.88D-03 OVMax= 1.38D-02

 Cycle   5  Pass 1  IDiag  1:
 E= -616.895303170326     Delta-E=       -0.001896301410 Rises=F Damp=F
 DIIS: error= 5.95D-04 at cycle   5 NSaved=   5.
 NSaved= 5 IEnMin= 5 EnMin= -616.895303170326     IErMin= 5 ErrMin= 5.95D-04
 ErrMax= 5.95D-04 EMaxC= 1.00D-01 BMatC= 7.75D-05 BMatP= 2.01D-03
 IDIUse=3 WtCom= 9.94D-01 WtEn= 5.95D-03
 Coeff-Com: -0.144D-01 0.419D-01 0.185D+00 0.239D+00 0.548D+00
 Coeff-En:   0.000D+00 0.000D+00 0.000D+00 0.000D+00 0.100D+01
 Coeff:     -0.143D-01 0.416D-01 0.184D+00 0.237D+00 0.551D+00
 Gap=     0.246 Goal=   None    Shift=    0.000
 RMSDP=9.91D-05 MaxDP=3.32D-03 DE=-1.90D-03 OVMax= 6.52D-03

 Cycle   6  Pass 1  IDiag  1:
 E= -616.895370411334     Delta-E=       -0.000067241008 Rises=F Damp=F
 DIIS: error= 2.89D-04 at cycle   6 NSaved=   6.
 NSaved= 6 IEnMin= 6 EnMin= -616.895370411334     IErMin= 6 ErrMin= 2.89D-04
 ErrMax= 2.89D-04 EMaxC= 1.00D-01 BMatC= 1.55D-05 BMatP= 7.75D-05
 IDIUse=3 WtCom= 9.97D-01 WtEn= 2.89D-03
 Coeff-Com: -0.361D-02 0.696D-02 0.528D-01 0.766D-01 0.333D+00 0.535D+00
 Coeff-En:   0.000D+00 0.000D+00 0.000D+00 0.000D+00 0.164D+00 0.836D+00
 Coeff:     -0.360D-02 0.694D-02 0.527D-01 0.764D-01 0.332D+00 0.535D+00
 Gap=     0.247 Goal=   None    Shift=    0.000
 RMSDP=4.41D-05 MaxDP=1.46D-03 DE=-6.72D-05 OVMax= 2.19D-03

 Cycle   7  Pass 1  IDiag  1:
 E= -616.895385546529     Delta-E=       -0.000015135195 Rises=F Damp=F
 DIIS: error= 3.42D-05 at cycle   7 NSaved=   7.
 NSaved= 7 IEnMin= 7 EnMin= -616.895385546529     IErMin= 7 ErrMin= 3.42D-05
 ErrMax= 3.42D-05 EMaxC= 1.00D-01 BMatC= 4.43D-07 BMatP= 1.55D-05
 IDIUse=1 WtCom= 1.00D+00 WtEn= 0.00D+00
 Coeff-Com: -0.686D-03 0.374D-03 0.122D-01 0.184D-01 0.108D+00 0.236D+00
 Coeff-Com:  0.626D+00
 Coeff:     -0.686D-03 0.374D-03 0.122D-01 0.184D-01 0.108D+00 0.236D+00
 Coeff:      0.626D+00
 Gap=     0.247 Goal=   None    Shift=    0.000
 RMSDP=9.68D-06 MaxDP=3.38D-04 DE=-1.51D-05 OVMax= 1.74D-04

 Cycle   8  Pass 1  IDiag  1:
 E= -616.895385947436     Delta-E=       -0.000000400907 Rises=F Damp=F
 DIIS: error= 7.71D-06 at cycle   8 NSaved=   8.
 NSaved= 8 IEnMin= 8 EnMin= -616.895385947436     IErMin= 8 ErrMin= 7.71D-06
 ErrMax= 7.71D-06 EMaxC= 1.00D-01 BMatC= 1.84D-08 BMatP= 4.43D-07
 IDIUse=1 WtCom= 1.00D+00 WtEn= 0.00D+00
 Coeff-Com:  0.469D-04-0.351D-03 0.756D-03 0.139D-02 0.180D-01 0.562D-01
 Coeff-Com:  0.231D+00 0.693D+00
 Coeff:      0.469D-04-0.351D-03 0.756D-03 0.139D-02 0.180D-01 0.562D-01
 Coeff:      0.231D+00 0.693D+00
 Gap=     0.247 Goal=   None    Shift=    0.000
 RMSDP=1.89D-06 MaxDP=4.46D-05 DE=-4.01D-07 OVMax= 4.63D-05

 Cycle   9  Pass 1  IDiag  1:
 E= -616.895385964706     Delta-E=       -0.000000017270 Rises=F Damp=F
 DIIS: error= 2.15D-06 at cycle   9 NSaved=   9.
 NSaved= 9 IEnMin= 9 EnMin= -616.895385964706     IErMin= 9 ErrMin= 2.15D-06
 ErrMax= 2.15D-06 EMaxC= 1.00D-01 BMatC= 1.22D-09 BMatP= 1.84D-08
 IDIUse=1 WtCom= 1.00D+00 WtEn= 0.00D+00
 Coeff-Com:  0.434D-04-0.103D-03-0.484D-03-0.654D-03-0.222D-02-0.653D-03
 Coeff-Com:  0.194D-01 0.242D+00 0.743D+00
 Coeff:      0.434D-04-0.103D-03-0.484D-03-0.654D-03-0.222D-02-0.653D-03
 Coeff:      0.194D-01 0.242D+00 0.743D+00
 Gap=     0.247 Goal=   None    Shift=    0.000
 RMSDP=8.73D-07 MaxDP=3.38D-05 DE=-1.73D-08 OVMax= 8.60D-06

 Cycle  10  Pass 1  IDiag  1:
 E= -616.895385965904     Delta-E=       -0.000000001198 Rises=F Damp=F
 DIIS: error= 4.22D-07 at cycle  10 NSaved=  10.
 NSaved=10 IEnMin=10 EnMin= -616.895385965904     IErMin=10 ErrMin= 4.22D-07
 ErrMax= 4.22D-07 EMaxC= 1.00D-01 BMatC= 4.27D-11 BMatP= 1.22D-09
 IDIUse=1 WtCom= 1.00D+00 WtEn= 0.00D+00
 Coeff-Com:  0.117D-04-0.208D-04-0.184D-03-0.254D-03-0.125D-02-0.162D-02
 Coeff-Com:  0.711D-03 0.729D-01 0.274D+00 0.656D+00
 Coeff:      0.117D-04-0.208D-04-0.184D-03-0.254D-03-0.125D-02-0.162D-02
 Coeff:      0.711D-03 0.729D-01 0.274D+00 0.656D+00
 Gap=     0.247 Goal=   None    Shift=    0.000
 RMSDP=1.32D-07 MaxDP=5.36D-06 DE=-1.20D-09 OVMax= 1.94D-06

 Cycle  11  Pass 1  IDiag  1:
 E= -616.895385965943     Delta-E=       -0.000000000039 Rises=F Damp=F
 DIIS: error= 1.52D-07 at cycle  11 NSaved=  11.
 NSaved=11 IEnMin=11 EnMin= -616.895385965943     IErMin=11 ErrMin= 1.52D-07
 ErrMax= 1.52D-07 EMaxC= 1.00D-01 BMatC= 6.48D-12 BMatP= 4.27D-11
 IDIUse=1 WtCom= 1.00D+00 WtEn= 0.00D+00
 Coeff-Com:  0.201D-05-0.210D-05-0.514D-04-0.707D-04-0.400D-03-0.615D-03
 Coeff-Com: -0.112D-02 0.139D-01 0.646D-01 0.317D+00 0.607D+00
 Coeff:      0.201D-05-0.210D-05-0.514D-04-0.707D-04-0.400D-03-0.615D-03
 Coeff:     -0.112D-02 0.139D-01 0.646D-01 0.317D+00 0.607D+00
 Gap=     0.247 Goal=   None    Shift=    0.000
 RMSDP=3.42D-08 MaxDP=1.25D-06 DE=-3.94D-11 OVMax= 5.21D-07

 Cycle  12  Pass 1  IDiag  1:
 E= -616.895385965948     Delta-E=       -0.000000000005 Rises=F Damp=F
 DIIS: error= 1.89D-08 at cycle  12 NSaved=  12.
 NSaved=12 IEnMin=12 EnMin= -616.895385965948     IErMin=12 ErrMin= 1.89D-08
 ErrMax= 1.89D-08 EMaxC= 1.00D-01 BMatC= 1.12D-13 BMatP= 6.48D-12
 IDIUse=1 WtCom= 1.00D+00 WtEn= 0.00D+00
 Coeff-Com: -0.269D-06 0.767D-06-0.135D-05-0.348D-05-0.289D-04-0.254D-04
 Coeff-Com: -0.315D-03-0.133D-02-0.776D-03 0.360D-01 0.132D+00 0.834D+00
 Coeff:     -0.269D-06 0.767D-06-0.135D-05-0.348D-05-0.289D-04-0.254D-04
 Coeff:     -0.315D-03-0.133D-02-0.776D-03 0.360D-01 0.132D+00 0.834D+00
 Gap=     0.247 Goal=   None    Shift=    0.000
 RMSDP=1.10D-08 MaxDP=4.88D-07 DE=-5.12D-12 OVMax= 1.16D-07

 Cycle  13  Pass 1  IDiag  1:
 E= -616.895385965949     Delta-E=       -0.000000000001 Rises=F Damp=F
 DIIS: error= 4.76D-09 at cycle  13 NSaved=  13.
 NSaved=13 IEnMin=13 EnMin= -616.895385965949     IErMin=13 ErrMin= 4.76D-09
 ErrMax= 4.76D-09 EMaxC= 1.00D-01 BMatC= 4.44D-15 BMatP= 1.12D-13
 IDIUse=1 WtCom= 1.00D+00 WtEn= 0.00D+00
 Coeff-Com: -0.137D-06 0.301D-06 0.113D-05 0.933D-06 0.214D-06 0.730D-05
 Coeff-Com: -0.820D-04-0.751D-03-0.189D-02 0.180D-02 0.202D-01 0.235D+00
 Coeff-Com:  0.746D+00
 Coeff:     -0.137D-06 0.301D-06 0.113D-05 0.933D-06 0.214D-06 0.730D-05
 Coeff:     -0.820D-04-0.751D-03-0.189D-02 0.180D-02 0.202D-01 0.235D+00
 Coeff:      0.746D+00
 Gap=     0.247 Goal=   None    Shift=    0.000
 RMSDP=2.72D-09 MaxDP=1.09D-07 DE=-5.68D-13 OVMax= 1.78D-08

 Cycle  14  Pass 1  IDiag  1:
 E= -616.895385965950     Delta-E=       -0.000000000001 Rises=F Damp=F
 DIIS: error= 9.35D-10 at cycle  14 NSaved=  14.
 NSaved=14 IEnMin=14 EnMin= -616.895385965950     IErMin=14 ErrMin= 9.35D-10
 ErrMax= 9.35D-10 EMaxC= 1.00D-01 BMatC= 2.21D-16 BMatP= 4.44D-15
 IDIUse=1 WtCom= 1.00D+00 WtEn= 0.00D+00
 Coeff-Com: -0.103D-07 0.212D-07 0.321D-06 0.381D-06 0.109D-05 0.285D-05
 Coeff-Com: -0.470D-05-0.994D-04-0.432D-03-0.173D-02-0.288D-02 0.118D-01
 Coeff-Com:  0.199D+00 0.794D+00
 Coeff:     -0.103D-07 0.212D-07 0.321D-06 0.381D-06 0.109D-05 0.285D-05
 Coeff:     -0.470D-05-0.994D-04-0.432D-03-0.173D-02-0.288D-02 0.118D-01
 Coeff:      0.199D+00 0.794D+00
 Gap=     0.247 Goal=   None    Shift=    0.000
 RMSDP=6.75D-10 MaxDP=2.62D-08 DE=-7.96D-13 OVMax= 4.07D-09

 Cycle  15  Pass 1  IDiag  1:
 E= -616.895385965948     Delta-E=        0.000000000001 Rises=F Damp=F
 DIIS: error= 1.79D-10 at cycle  15 NSaved=  15.
 NSaved=15 IEnMin=14 EnMin= -616.895385965950     IErMin=15 ErrMin= 1.79D-10
 ErrMax= 1.79D-10 EMaxC= 1.00D-01 BMatC= 3.85D-18 BMatP= 2.21D-16
 IDIUse=1 WtCom= 1.00D+00 WtEn= 0.00D+00
 Coeff-Com:  0.636D-09-0.133D-08 0.409D-07 0.719D-07 0.199D-06 0.408D-06
 Coeff-Com:  0.839D-06-0.804D-06-0.384D-04-0.341D-03-0.108D-02-0.334D-02
 Coeff-Com:  0.176D-01 0.140D+00 0.847D+00
 Coeff:      0.636D-09-0.133D-08 0.409D-07 0.719D-07 0.199D-06 0.408D-06
 Coeff:      0.839D-06-0.804D-06-0.384D-04-0.341D-03-0.108D-02-0.334D-02
 Coeff:      0.176D-01 0.140D+00 0.847D+00
 Gap=     0.247 Goal=   None    Shift=    0.000
 RMSDP=9.45D-11 MaxDP=3.78D-09 DE= 1.48D-12 OVMax= 7.81D-10

 Cycle  16  Pass 1  IDiag  1:
 E= -616.895385965949     Delta-E=        0.000000000000 Rises=F Damp=F
 DIIS: error= 4.64D-11 at cycle  16 NSaved=  16.
 NSaved=16 IEnMin=14 EnMin= -616.895385965950     IErMin=16 ErrMin= 4.64D-11
 ErrMax= 4.64D-11 EMaxC= 1.00D-01 BMatC= 2.09D-19 BMatP= 3.85D-18
 IDIUse=1 WtCom= 1.00D+00 WtEn= 0.00D+00
 Large coefficients: NSaved= 16 BigCof=    0.00 CofMax=   10.00 Det=-2.20D-18
 Inversion failed.  Reducing to 15 matrices.
 Coeff-Com: -0.178D-09 0.459D-08 0.130D-07 0.397D-07 0.837D-07 0.375D-06
 Coeff-Com:  0.168D-05 0.128D-05-0.258D-04-0.165D-03-0.982D-03-0.222D-02
 Coeff-Com:  0.448D-02 0.199D+00 0.800D+00
 Coeff:     -0.178D-09 0.459D-08 0.130D-07 0.397D-07 0.837D-07 0.375D-06
 Coeff:      0.168D-05 0.128D-05-0.258D-04-0.165D-03-0.982D-03-0.222D-02
 Coeff:      0.448D-02 0.199D+00 0.800D+00
 Gap=     0.247 Goal=   None    Shift=    0.000
 RMSDP=2.86D-11 MaxDP=9.29D-10 DE=-4.55D-13 OVMax= 1.76D-10

 Cycle  17  Pass 1  IDiag  1:
 E= -616.895385965949     Delta-E=        0.000000000000 Rises=F Damp=F
 DIIS: error= 8.60D-12 at cycle  17 NSaved=  16.
 NSaved=16 IEnMin=13 EnMin= -616.895385965950     IErMin=16 ErrMin= 8.60D-12
 ErrMax= 8.60D-12 EMaxC= 1.00D-01 BMatC= 8.97D-21 BMatP= 2.09D-19
 IDIUse=1 WtCom= 1.00D+00 WtEn= 0.00D+00
 Large coefficients: NSaved= 16 BigCof=    0.00 CofMax=   10.00 Det=-1.10D-19
 Inversion failed.  Reducing to 15 matrices.
 Coeff-Com: -0.112D-08-0.632D-09-0.182D-08 0.190D-08 0.506D-07 0.455D-06
 Coeff-Com:  0.232D-05 0.992D-05 0.639D-05-0.103D-03-0.140D-02-0.571D-02
 Coeff-Com:  0.150D-01 0.211D+00 0.781D+00
 Coeff:     -0.112D-08-0.632D-09-0.182D-08 0.190D-08 0.506D-07 0.455D-06
 Coeff:      0.232D-05 0.992D-05 0.639D-05-0.103D-03-0.140D-02-0.571D-02
 Coeff:      0.150D-01 0.211D+00 0.781D+00
 Gap=     0.247 Goal=   None    Shift=    0.000
 RMSDP=1.94D-11 MaxDP=1.64D-09 DE=-1.14D-13 OVMax= 3.05D-11

 Cycle  18  Pass 1  IDiag  1:
 E= -616.895385965950     Delta-E=       -0.000000000001 Rises=F Damp=F
 DIIS: error= 1.61D-12 at cycle  18 NSaved=  16.
 NSaved=16 IEnMin=12 EnMin= -616.895385965950     IErMin=16 ErrMin= 1.61D-12
 ErrMax= 1.61D-12 EMaxC= 1.00D-01 BMatC= 3.22D-22 BMatP= 8.97D-21
 IDIUse=1 WtCom= 1.00D+00 WtEn= 0.00D+00
 Large coefficients: NSaved= 16 BigCof=    0.00 CofMax=   10.00 Det=-3.87D-21
 Inversion failed.  Reducing to 15 matrices.
 Coeff-Com:  0.314D-10 0.878D-09 0.149D-08 0.973D-08 0.330D-07 0.194D-06
 Coeff-Com:  0.632D-06 0.111D-06-0.140D-04-0.116D-03-0.724D-03-0.451D-03
 Coeff-Com:  0.209D-01 0.152D+00 0.829D+00
 Coeff:      0.314D-10 0.878D-09 0.149D-08 0.973D-08 0.330D-07 0.194D-06
 Coeff:      0.632D-06 0.111D-06-0.140D-04-0.116D-03-0.724D-03-0.451D-03
 Coeff:      0.209D-01 0.152D+00 0.829D+00
 Gap=     0.247 Goal=   None    Shift=    0.000
 RMSDP=1.27D-11 MaxDP=6.37D-10 DE=-5.68D-13 OVMax= 6.66D-12

 Cycle  19  Pass 1  IDiag  1:
 E= -616.895385965953     Delta-E=       -0.000000000003 Rises=F Damp=F
 DIIS: error= 2.76D-12 at cycle  19 NSaved=  16.
 NSaved=16 IEnMin=16 EnMin= -616.895385965953     IErMin=15 ErrMin= 1.61D-12
 ErrMax= 2.76D-12 EMaxC= 1.00D-01 BMatC= 1.96D-22 BMatP= 3.22D-22
 IDIUse=1 WtCom= 1.00D+00 WtEn= 0.00D+00
 Large coefficients: NSaved= 16 BigCof=    0.00 CofMax=   10.00 Det=-3.93D-22
 Inversion failed.  Reducing to 15 matrices.
 Coeff-Com:  0.391D-09 0.527D-09 0.342D-08 0.846D-08 0.856D-07 0.447D-06
 Coeff-Com:  0.693D-06-0.371D-05-0.529D-04-0.407D-03-0.788D-03 0.878D-02
 Coeff-Com:  0.766D-01 0.437D+00 0.479D+00
 Coeff:      0.391D-09 0.527D-09 0.342D-08 0.846D-08 0.856D-07 0.447D-06
 Coeff:      0.693D-06-0.371D-05-0.529D-04-0.407D-03-0.788D-03 0.878D-02
 Coeff:      0.766D-01 0.437D+00 0.479D+00
 Gap=     0.247 Goal=   None    Shift=    0.000
 RMSDP=7.44D-12 MaxDP=2.88D-10 DE=-3.07D-12 OVMax= 2.87D-12

 Cycle  20  Pass 1  IDiag  1:
 E= -616.895385965949     Delta-E=        0.000000000003 Rises=F Damp=F
 DIIS: error= 2.19D-12 at cycle  20 NSaved=  16.
 NSaved=16 IEnMin=15 EnMin= -616.895385965953     IErMin=14 ErrMin= 1.61D-12
 ErrMax= 2.19D-12 EMaxC= 1.00D-01 BMatC= 1.32D-22 BMatP= 1.96D-22
 IDIUse=1 WtCom= 1.00D+00 WtEn= 0.00D+00
 Large coefficients: NSaved= 16 BigCof=    0.00 CofMax=   10.00 Det=-2.44D-22
 Inversion failed.  Reducing to 15 matrices.
 Coeff-Com: -0.139D-09-0.452D-10 0.651D-09 0.464D-07 0.270D-06 0.433D-06
 Coeff-Com: -0.915D-06-0.193D-04-0.194D-03-0.342D-03 0.496D-02 0.440D-01
 Coeff-Com:  0.224D+00 0.275D+00 0.452D+00
 Coeff:     -0.139D-09-0.452D-10 0.651D-09 0.464D-07 0.270D-06 0.433D-06
 Coeff:     -0.915D-06-0.193D-04-0.194D-03-0.342D-03 0.496D-02 0.440D-01
 Coeff:      0.224D+00 0.275D+00 0.452D+00
 Gap=     0.247 Goal=   None    Shift=    0.000
 RMSDP=7.53D-12 MaxDP=5.53D-10 DE= 3.18D-12 OVMax= 3.42D-12

 Cycle  21  Pass 1  IDiag  1:
 E= -616.895385965950     Delta-E=       -0.000000000001 Rises=F Damp=F
 DIIS: error= 1.61D-12 at cycle  21 NSaved=  16.
 NSaved=16 IEnMin=14 EnMin= -616.895385965953     IErMin=13 ErrMin= 1.61D-12
 ErrMax= 1.61D-12 EMaxC= 1.00D-01 BMatC= 1.76D-22 BMatP= 1.32D-22
 IDIUse=1 WtCom= 1.00D+00 WtEn= 0.00D+00
 Large coefficients: NSaved= 16 BigCof=    0.00 CofMax=   10.00 Det=-2.12D-22
 Inversion failed.  Reducing to 15 matrices.
 Coeff-Com:  0.174D-09 0.307D-08 0.388D-07 0.268D-06 0.646D-06 0.122D-05
 Coeff-Com: -0.657D-05-0.113D-03-0.373D-03 0.154D-02 0.214D-01 0.164D+00
 Coeff-Com:  0.155D+00 0.334D+00 0.324D+00
 Coeff:      0.174D-09 0.307D-08 0.388D-07 0.268D-06 0.646D-06 0.122D-05
 Coeff:     -0.657D-05-0.113D-03-0.373D-03 0.154D-02 0.214D-01 0.164D+00
 Coeff:      0.155D+00 0.334D+00 0.324D+00
 Gap=     0.247 Goal=   None    Shift=    0.000
 RMSDP=5.49D-12 MaxDP=3.75D-10 DE=-6.82D-13 OVMax= 1.86D-12

 Cycle  22  Pass 1  IDiag  1:
 E= -616.895385965952     Delta-E=       -0.000000000002 Rises=F Damp=F
 DIIS: error= 2.52D-12 at cycle  22 NSaved=  16.
 NSaved=16 IEnMin=13 EnMin= -616.895385965953     IErMin=12 ErrMin= 1.61D-12
 ErrMax= 2.52D-12 EMaxC= 1.00D-01 BMatC= 2.54D-22 BMatP= 1.32D-22
 IDIUse=1 WtCom= 1.00D+00 WtEn= 0.00D+00
 Large coefficients: NSaved= 16 BigCof=    0.00 CofMax=   10.00 Det=-1.32D-22
 Inversion failed.  Reducing to 15 matrices.
 Coeff-Com:  0.208D-08 0.311D-07 0.249D-06 0.663D-06 0.167D-05-0.303D-05
 Coeff-Com: -0.914D-04-0.381D-03 0.741D-03 0.154D-01 0.152D+00 0.149D+00
 Coeff-Com:  0.338D+00 0.195D+00 0.150D+00
 Coeff:      0.208D-08 0.311D-07 0.249D-06 0.663D-06 0.167D-05-0.303D-05
 Coeff:     -0.914D-04-0.381D-03 0.741D-03 0.154D-01 0.152D+00 0.149D+00
 Coeff:      0.338D+00 0.195D+00 0.150D+00
 Gap=     0.247 Goal=   None    Shift=    0.000
 RMSDP=2.78D-12 MaxDP=2.19D-10 DE=-1.59D-12 OVMax= 1.01D-12

 Cycle  23  Pass 1  IDiag  1:
 E= -616.895385965951     Delta-E=        0.000000000000 Rises=F Damp=F
 DIIS: error= 2.80D-12 at cycle  23 NSaved=  16.
 NSaved=16 IEnMin=12 EnMin= -616.895385965953     IErMin=11 ErrMin= 1.61D-12
 ErrMax= 2.80D-12 EMaxC= 1.00D-01 BMatC= 1.43D-22 BMatP= 1.32D-22
 IDIUse=1 WtCom= 1.00D+00 WtEn= 0.00D+00
 Large coefficients: NSaved= 16 BigCof=    0.00 CofMax=   10.00 Det=-1.29D-22
 Inversion failed.  Reducing to 15 matrices.
 Coeff-Com:  0.210D-07 0.208D-06 0.596D-06 0.167D-05-0.254D-05-0.827D-04
 Coeff-Com: -0.363D-03 0.574D-03 0.133D-01 0.133D+00 0.119D+00 0.335D+00
 Coeff-Com:  0.181D+00 0.112D+00 0.107D+00
 Coeff:      0.210D-07 0.208D-06 0.596D-06 0.167D-05-0.254D-05-0.827D-04
 Coeff:     -0.363D-03 0.574D-03 0.133D-01 0.133D+00 0.119D+00 0.335D+00
 Coeff:      0.181D+00 0.112D+00 0.107D+00
 Gap=     0.247 Goal=   None    Shift=    0.000
 RMSDP=9.10D-13 MaxDP=3.70D-11 DE= 2.27D-13 OVMax= 3.83D-13

 SCF Done:  E(RB3LYP) =  -616.895385966     A.U. after   23 cycles
             Convg  =    0.9104D-12             -V/T =  2.0032
 KE= 6.149107733828D+02 PE=-1.878962604257D+03 EE= 4.360038482356D+02
 Leave Link  502 at Wed Jul 10 12:57:17 2013, MaxMem=  262144000 cpu:     300.1
 (Enter /cerebro/home/software/apps/g09/l601.exe)
 Copying SCF densities to generalized density rwf, IOpCl= 0 IROHF=0.

 **********************************************************************

            Population analysis using the SCF density.

 **********************************************************************

 Orbital symmetries:
       Occupied  (A) (A) (A) (A) (A) (A) (A) (A) (A) (A) (A) (A)
                 (A) (A) (A) (A) (A) (A) (A) (A) (A) (A) (A) (A)
       Virtual   (A) (A) (A) (A) (A) (A) (A) (A) (A) (A) (A) (A)
                 (A) (A) (A) (A) (A) (A) (A) (A) (A) (A) (A) (A)
                 (A) (A) (A) (A) (A) (A) (A) (A) (A) (A) (A) (A)
                 (A) (A) (A) (A) (A) (A) (A) (A) (A) (A) (A) (A)
                 (A) (A) (A) (A) (A) (A) (A) (A) (A) (A) (A) (A)
                 (A) (A) (A) (A) (A) (A) (A) (A) (A) (A) (A) (A)
                 (A) (A) (A) (A) (A) (A) (A) (A) (A) (A) (A) (A)
                 (A) (A) (A) (A) (A) (A) (A) (A) (A) (A) (A) (A)
                 (A) (A) (A) (A) (A) (A) (A) (A) (A) (A) (A) (A)
                 (A) (A) (A) (A) (A) (A) (A) (A) (A) (A) (A) (A)
                 (A) (A) (A) (A) (A) (A) (A) (A) (A) (A) (A) (A)
                 (A) (A) (A) (A) (A) (A) (A) (A) (A) (A) (A)
 The electronic state is 1-A.
 Alpha  occ. eigenvalues -- -101.53440 -10.24922 -10.19604 -10.18671 -10.18417
 Alpha  occ. eigenvalues --   -9.44879  -7.21314  -7.20370  -7.20354  -0.86672
 Alpha  occ. eigenvalues --   -0.78591  -0.74082  -0.63832  -0.57564  -0.48435
 Alpha  occ. eigenvalues --   -0.47440  -0.44382  -0.41610  -0.40176  -0.37443
 Alpha  occ. eigenvalues --   -0.36612  -0.30611  -0.29871  -0.28010
 Alpha virt. eigenvalues --   -0.03350  -0.00781   0.00590   0.00676   0.02115
 Alpha virt. eigenvalues --    0.02816   0.03844   0.04082   0.06328   0.06441
 Alpha virt. eigenvalues --    0.07253   0.08275   0.08704   0.09842   0.11053
 Alpha virt. eigenvalues --    0.11536   0.11800   0.12159   0.12850   0.13038
 Alpha virt. eigenvalues --    0.13474   0.14146   0.14998   0.15622   0.15986
 Alpha virt. eigenvalues --    0.16346   0.17086   0.18636   0.19010   0.21237
 Alpha virt. eigenvalues --    0.21882   0.22481   0.24599   0.25981   0.26973
 Alpha virt. eigenvalues --    0.28994   0.33962   0.35472   0.38883   0.42541
 Alpha virt. eigenvalues --    0.43030   0.44670   0.45802   0.47799   0.48822
 Alpha virt. eigenvalues --    0.49525   0.52248   0.52690   0.56544   0.58633
 Alpha virt. eigenvalues --    0.59852   0.62270   0.63361   0.64697   0.65565
 Alpha virt. eigenvalues --    0.65966   0.68806   0.70194   0.73114   0.73485
 Alpha virt. eigenvalues --    0.78562   0.81429   0.82900   0.86306   0.89120
 Alpha virt. eigenvalues --    0.90100   0.94184   0.95998   1.00547   1.03056
 Alpha virt. eigenvalues --    1.06367   1.08171   1.12381   1.17414   1.19639
 Alpha virt. eigenvalues --    1.29026   1.39056   1.42323   1.44565   1.46534
 Alpha virt. eigenvalues --    1.50412   1.53765   1.55701   1.58080   1.59285
 Alpha virt. eigenvalues --    1.62290   1.66436   1.68798   1.69370   1.72152
 Alpha virt. eigenvalues --    1.76725   1.78280   1.86694   1.87857   1.93043
 Alpha virt. eigenvalues --    1.97969   2.01110   2.06532   2.11209   2.16948
 Alpha virt. eigenvalues --    2.18397   2.19320   2.24243   2.29505   2.30560
 Alpha virt. eigenvalues --    2.35146   2.36717   2.44431   2.45009   2.48523
 Alpha virt. eigenvalues --    2.52083   2.55627   2.56833   2.58475   2.59777
 Alpha virt. eigenvalues --    2.64185   2.72656   2.73345   2.74544   2.77215
 Alpha virt. eigenvalues --    2.85153   2.86176   2.92844   3.07238   3.08050
 Alpha virt. eigenvalues --    3.18035   3.39313   3.49647   3.69977   3.77512
 Alpha virt. eigenvalues --    3.77777   3.93047   4.10392   4.27795   9.75528
 Alpha virt. eigenvalues --   23.70655  23.77949  23.92168  24.22871  25.92997
 Alpha virt. eigenvalues --   25.97284  26.44437 215.74502
          Condensed to atoms (all electrons):
              1          2          3          4          5          6
     1  C    5.426572   0.130881  -0.006517   0.111733  -0.005154   0.376331
     2  C    0.130881   5.402981   0.034980  -0.114550  -0.019654  -0.050499
     3  C   -0.006517   0.034980   5.315818   0.419400  -0.041953   0.022959
     4  C    0.111733  -0.114550   0.419400   5.402348   0.384075  -0.011454
     5  H   -0.005154  -0.019654  -0.041953   0.384075   0.565628   0.000855
     6  H    0.376331  -0.050499   0.022959  -0.011454   0.000855   0.546761
     7  H    0.002865   0.018663  -0.013912   0.388664  -0.037886   0.000224
     8  H   -0.019088  -0.009086   0.328302  -0.034295   0.015388  -0.001781
     9  H   -0.044592   0.471811  -0.137692   0.011273   0.011583  -0.003903
    10  H    0.393980  -0.012546  -0.045632  -0.001175   0.002188  -0.018566
    11  H    0.367063  -0.053176   0.021320   0.004880  -0.000933  -0.028129
    12  Cl  -0.052319   0.026584   0.002603   0.065545  -0.000110   0.012933
              7          8          9         10         11         12
     1  C    0.002865  -0.019088  -0.044592   0.393980   0.367063  -0.052319
     2  C    0.018663  -0.009086   0.471811  -0.012546  -0.053176   0.026584
     3  C   -0.013912   0.328302  -0.137692  -0.045632   0.021320   0.002603
     4  C    0.388664  -0.034295   0.011273  -0.001175   0.004880   0.065545
     5  H   -0.037886   0.015388   0.011583   0.002188  -0.000933  -0.000110
     6  H    0.000224  -0.001781  -0.003903  -0.018566  -0.028129   0.012933
     7  H    0.534815  -0.020053  -0.002903  -0.000861   0.000251  -0.004030
     8  H   -0.020053   0.548320   0.006012   0.003895  -0.002629   0.018749
     9  H   -0.002903   0.006012   0.515918   0.007740  -0.011980  -0.044284
    10  H   -0.000861   0.003895   0.007740   0.540136  -0.033954   0.008006
    11  H    0.000251  -0.002629  -0.011980  -0.033954   0.582419   0.019250
    12  Cl  -0.004030   0.018749  -0.044284   0.008006   0.019250  17.006903
 Mulliken atomic charges:
              1
     1  C   -0.681756
     2  C    0.173611
     3  C    0.100323
     4  C   -0.626443
     5  H    0.125975
     6  H    0.154271
     7  H    0.134163
     8  H    0.166265
     9  H    0.221016
    10  H    0.156790
    11  H    0.135617
    12  Cl  -0.059831
 Sum of Mulliken atomic charges =   0.00000
 Mulliken charges with hydrogens summed into heavy atoms:
              1
     1  C   -0.235079
     2  C    0.394627
     3  C    0.266587
     4  C   -0.366305
    12  Cl  -0.059831
 Sum of Mulliken charges with hydrogens summed into heavy atoms =   0.00000
 Electronic spatial extent (au):  <R**2>=            631.3350
 Charge=              0.0000 electrons
 Dipole moment (field-independent basis, Debye):
    X=             -1.6991    Y=              1.5680    Z=             -0.3238  Tot=              2.3346
 Quadrupole moment (field-independent basis, Debye-Ang):
   XX=            -39.4433   YY=            -40.1468   ZZ=            -37.1596
   XY=              2.3538   XZ=              0.0584   YZ=             -0.2253
 Traceless Quadrupole moment (field-independent basis, Debye-Ang):
   XX=             -0.5267   YY=             -1.2303   ZZ=              1.7570
   XY=              2.3538   XZ=              0.0584   YZ=             -0.2253
 Octapole moment (field-independent basis, Debye-Ang**2):
  XXX=             -1.8065  YYY=              1.4740  ZZZ=             -0.4613  XYY=              4.5420
  XXY=             -4.7619  XXZ=              0.3125  XZZ=             -0.9147  YZZ=             -0.3879
  YYZ=             -0.1805  XYZ=             -0.2578
 Hexadecapole moment (field-independent basis, Debye-Ang**3):
 XXXX=           -492.1357 YYYY=           -278.4489 ZZZZ=            -81.6993 XXXY=              9.5869
 XXXZ=             -2.8482 YYYX=             -8.6572 YYYZ=             -2.0036 ZZZX=              1.1039
 ZZZY=              1.1623 XXYY=           -130.4148 XXZZ=            -96.6721 YYZZ=            -61.7683
 XXYZ=             -3.4324 YYXZ=              0.7420 ZZXY=              1.6284
 N-N= 2.111525966729D+02 E-N=-1.878962604257D+03  KE= 6.149107733828D+02
 No NMR shielding tensors so no spin-rotation constants.
 Leave Link  601 at Wed Jul 10 12:57:18 2013, MaxMem=  262144000 cpu:       0.2
 (Enter /cerebro/home/software/apps/g09/l701.exe)
 Compute integral first derivatives.
 ... and contract with generalized density number  0.
 Leave Link  701 at Wed Jul 10 12:57:18 2013, MaxMem=  262144000 cpu:       0.2
 (Enter /cerebro/home/software/apps/g09/l702.exe)
 L702 exits ... SP integral derivatives will be done elsewhere.
 Leave Link  702 at Wed Jul 10 12:57:18 2013, MaxMem=  262144000 cpu:       0.0
 (Enter /cerebro/home/software/apps/g09/l703.exe)
 Compute integral first derivatives, UseDBF=F ICtDFT=           0.
 Integral derivatives from FoFDir, PRISM(SPDF).
 Calling FoFJK, ICntrl=      2127 FMM=F ISym2X=0 I1Cent= 0 IOpClX= 0 NMat=1 NMatS=1 NMatT=0.
 FoFCou: FMM=F IPFlag=           0 FMFlag=      100000 FMFlg1=         800
         NFxFlg=           0 DoJE=F BraDBF=F KetDBF=F FulRan=T
         Omega=  0.000000  0.000000  1.000000  0.000000  0.000000 ICntrl=    2127 IOpCl=  0
         NMat0=    1 NMatS0=    1 NMatT0=    0 NMatD0=    1 NMtDS0=    0 NMtDT0=    0
         I1Cent=           0 NGrid=           0.
 Symmetry not used in FoFCou.
 Leave Link  703 at Wed Jul 10 12:57:51 2013, MaxMem=  262144000 cpu:      33.2
 (Enter /cerebro/home/software/apps/g09/l716.exe)
 Dipole        =-6.68467912D-01 6.16906429D-01-1.27391446D-01
 ***** Axes restored to original set *****
 -------------------------------------------------------------------
 Center     Atomic                   Forces (Hartrees/Bohr)
 Number     Number              X              Y              Z
 -------------------------------------------------------------------
      1        6           0.000402807   -0.000486683   -0.004674416
      2        6          -0.001378030    0.004032703    0.001657589
      3        6           0.003763907   -0.000057737    0.001643357
      4        6          -0.000231039   -0.000326423   -0.000331999
      5        1           0.003372803   -0.004729443   -0.001007599
      6        1           0.004992206    0.000091132    0.002185682
      7        1          -0.005468419    0.000584059   -0.002409005
      8        1          -0.003128904    0.004585428    0.001165317
      9        1           0.002853535   -0.004931620   -0.001530093
     10        1          -0.002568113    0.004751384    0.001459229
     11        1          -0.002911821   -0.004210856    0.001952142
     12       17           0.000301068    0.000698057   -0.000110204
 -------------------------------------------------------------------
 Cartesian Forces:  Max     0.005468419 RMS     0.002836782
 Leave Link  716 at Wed Jul 10 12:57:51 2013, MaxMem=  262144000 cpu:       0.0
 (Enter /cerebro/home/software/apps/g09/l103.exe)

 GradGradGradGradGradGradGradGradGradGradGradGradGradGradGradGradGradGrad
 Berny optimization.
 Internal  Forces:  Max     0.006280067 RMS     0.002387975
 Search for a local minimum.
 Step number   1 out of a maximum of   58
 All quantities printed in internal units (Hartrees-Bohrs-Radians)
 RMS Force = .23880D-02 SwitMx=.10000D-02 MixMth= 1
 Mixed Optimization -- RFO/linear search
 Second derivative matrix not updated -- first step.
     Eigenvalues ---    0.00456   0.00809   0.01707   0.02939   0.02939
     Eigenvalues ---    0.04653   0.05601   0.05785   0.05869   0.10844
     Eigenvalues ---    0.15998   0.16000   0.16000   0.16000   0.16000
     Eigenvalues ---    0.16000   0.18019   0.22001   0.22232   0.23112
     Eigenvalues ---    0.30040   0.32724   0.33348   0.33554   0.33712
     Eigenvalues ---    0.33808   0.34115   0.34293   0.34510   0.58178
     Eigenvalues --- 1000.000001000.000001000.000001000.000001000.00000
     Eigenvalues --- 1000.000001000.000001000.000001000.000001000.00000
     Eigenvalues --- 1000.000001000.000001000.000001000.000001000.00000
     Eigenvalues --- 1000.000001000.000001000.00000
 RFO step:  Lambda=-7.62680221D-04 EMin= 4.56245526D-03
 Linear search not attempted -- first point.
 Iteration  1 RMS(Cart)=  0.00847628 RMS(Int)=  0.00001181
 Iteration  2 RMS(Cart)=  0.00001809 RMS(Int)=  0.00000067
 Iteration  3 RMS(Cart)=  0.00000000 RMS(Int)=  0.00000067
 Variable       Old X    -DE/DX   Delta X   Delta X   Delta X     New X
                                 (Linear)    (Quad)   (Total)
    R1        2.87883  -0.00093   0.00000  -0.00310  -0.00310   2.87573
    R2        2.07818  -0.00545   0.00000  -0.01613  -0.01613   2.06206
    R3        2.08089  -0.00559   0.00000  -0.01664  -0.01664   2.06426
    R4        2.08445  -0.00548   0.00000  -0.01639  -0.01639   2.06806
    R5        2.82839  -0.00194   0.00000  -0.00590  -0.00590   2.82249
    R6        2.07655  -0.00590   0.00000  -0.01741  -0.01741   2.05915
    R7        3.50514  -0.00073   0.00000  -0.00328  -0.00328   3.50186
    R8        2.52412  -0.00628   0.00000  -0.01078  -0.01078   2.51334
    R9        2.07136  -0.00567   0.00000  -0.01659  -0.01659   2.05477
   R10        2.06839  -0.00589   0.00000  -0.01713  -0.01713   2.05126
   R11        2.06478  -0.00600   0.00000  -0.01735  -0.01735   2.04743
    A1        1.93695   0.00010   0.00000   0.00062   0.00062   1.93757
    A2        1.93601   0.00005   0.00000   0.00061   0.00061   1.93662
    A3        1.90721  -0.00003   0.00000  -0.00050  -0.00050   1.90672
    A4        1.89289  -0.00001   0.00000   0.00051   0.00051   1.89340
    A5        1.89776  -0.00010   0.00000  -0.00116  -0.00116   1.89660
    A6        1.89207  -0.00001   0.00000  -0.00013  -0.00013   1.89194
    A7        1.98411   0.00001   0.00000   0.00071   0.00071   1.98482
    A8        1.93816  -0.00002   0.00000  -0.00044  -0.00044   1.93772
    A9        1.89474   0.00018   0.00000   0.00169   0.00169   1.89642
   A10        1.92795  -0.00002   0.00000  -0.00058  -0.00058   1.92737
   A11        1.89359  -0.00001   0.00000   0.00079   0.00079   1.89438
   A12        1.81685  -0.00016   0.00000  -0.00235  -0.00235   1.81450
   A13        2.16299  -0.00024   0.00000  -0.00109  -0.00109   2.16190
   A14        2.01868   0.00018   0.00000   0.00095   0.00095   2.01963
   A15        2.10131   0.00006   0.00000   0.00019   0.00019   2.10150
   A16        2.12151   0.00022   0.00000   0.00135   0.00135   2.12286
   A17        2.11844   0.00014   0.00000   0.00086   0.00086   2.11930
   A18        2.04323  -0.00036   0.00000  -0.00221  -0.00221   2.04102
    D1        3.10435   0.00011   0.00000   0.00284   0.00284   3.10720
    D2       -0.99198   0.00008   0.00000   0.00226   0.00226  -0.98971
    D3        0.99529  -0.00002   0.00000   0.00017   0.00017   0.99545
    D4        0.99886   0.00003   0.00000   0.00137   0.00137   1.00023
    D5       -3.09747   0.00000   0.00000   0.00079   0.00079  -3.09668
    D6       -1.11021  -0.00010   0.00000  -0.00131  -0.00131  -1.11152
    D7       -1.08618   0.00003   0.00000   0.00147   0.00147  -1.08470
    D8        1.10068   0.00000   0.00000   0.00089   0.00089   1.10157
    D9        3.08794  -0.00010   0.00000  -0.00120  -0.00120   3.08674
   D10        2.13996  -0.00003   0.00000   0.00415   0.00415   2.14411
   D11       -0.98001  -0.00008   0.00000   0.00134   0.00134  -0.97866
   D12       -0.05233   0.00000   0.00000   0.00466   0.00466  -0.04768
   D13        3.11089  -0.00005   0.00000   0.00185   0.00185   3.11274
   D14       -2.03352   0.00021   0.00000   0.00733   0.00733  -2.02619
   D15        1.12970   0.00016   0.00000   0.00452   0.00452   1.13422
   D16        0.03171   0.00005   0.00000   0.00102   0.00102   0.03273
   D17       -3.11063  -0.00003   0.00000  -0.00157  -0.00157  -3.11220
   D18       -3.13248   0.00010   0.00000   0.00396   0.00396  -3.12853
   D19        0.00837   0.00002   0.00000   0.00137   0.00137   0.00974
         Item               Value     Threshold  Converged?
 Maximum Force            0.006280     0.000002     NO 
 RMS     Force            0.002388     0.000001     NO 
 Maximum Displacement     0.023394     0.000006     NO 
 RMS     Displacement     0.008476     0.000004     NO 
 Predicted change in Energy=-3.822335D-04
 GradGradGradGradGradGradGradGradGradGradGradGradGradGradGradGradGradGrad

 Leave Link  103 at Wed Jul 10 12:57:51 2013, MaxMem=  262144000 cpu:       0.0
 (Enter /cerebro/home/software/apps/g09/l202.exe)
                          Input orientation:                          
 ---------------------------------------------------------------------
 Center     Atomic      Atomic             Coordinates (Angstroms)
 Number     Number       Type             X           Y           Z
 ---------------------------------------------------------------------
      1          6           0       -0.056666    0.238484   -1.797375
      2          6           0       -0.145727    0.355928   -0.282759
      3          6           0        1.180187    0.304411    0.402906
      4          6           0        1.636891    1.261028    1.206158
      5          1           0        1.044886    2.140989    1.437376
      6          1           0       -1.049737    0.246326   -2.249538
      7          1           0        2.617398    1.195246    1.662397
      8          1           0        1.785330   -0.574586    0.194413
      9          1           0       -0.689842    1.253997    0.008368
     10          1           0        0.449196   -0.684835   -2.088638
     11          1           0        0.514508    1.084534   -2.191842
     12         17           0       -1.195024   -1.030282    0.358643
 ---------------------------------------------------------------------
                    Distance matrix (angstroms):
                    1          2          3          4          5
     1  C    0.000000
     2  C    1.521771   0.000000
     3  C    2.524953   1.493599   0.000000
     4  C    3.596519   2.492751   1.330003   0.000000
     5  H    3.911082   2.750066   2.112215   1.085478   0.000000
     6  H    1.091193   2.167364   3.465746   4.493265   4.644408
     7  H    4.476163   3.481802   2.108431   1.083455   1.848745
     8  H    2.832181   2.196026   1.087337   2.101224   3.076940
     9  H    2.166308   1.089653   2.134100   2.616952   2.416216
    10  H    1.092359   2.167561   2.778623   4.006580   4.557730
    11  H    1.094369   2.147411   2.790061   3.582918   3.816887
    12  Cl   2.748462   1.853105   2.724884   3.740071   4.029618
                    6          7          8          9         10
     6  H    0.000000
     7  H    5.445325   0.000000
     8  H    3.832022   2.445326   0.000000
     9  H    2.498613   3.698256   3.082986   0.000000
    10  H    1.771934   4.722930   2.647589   3.074721   0.000000
    11  H    1.775608   4.391989   3.172047   2.513981   1.773579
    12  Cl   2.907481   4.602968   3.019460   2.365552   2.968497
                   11         12
    11  H    0.000000
    12  Cl   3.728260   0.000000
 Stoichiometry    C4H7Cl
 Framework group  C1[X(C4H7Cl)]
 Deg. of freedom    30
 Full point group                 C1      NOp   1
 Largest Abelian subgroup         C1      NOp   1
 Largest concise Abelian subgroup C1      NOp   1
                         Standard orientation:                         
 ---------------------------------------------------------------------
 Center     Atomic      Atomic             Coordinates (Angstroms)
 Number     Number       Type             X           Y           Z
 ---------------------------------------------------------------------
      1          6           0        0.464705    1.753652    0.040964
      2          6           0        0.005534    0.349448   -0.323947
      3          6           0       -1.204811   -0.100943    0.426421
      4          6           0       -2.332611   -0.498283   -0.155900
      5          1           0       -2.429267   -0.546538   -1.235989
      6          1           0        1.369389    2.024032   -0.505978
      7          1           0       -3.196838   -0.791817    0.427902
      8          1           0       -1.125836   -0.071700    1.510493
      9          1           0       -0.156606    0.257827   -1.397567
     10          1           0        0.670496    1.831784    1.110914
     11          1           0       -0.324412    2.468412   -0.212130
     12         17           0        1.388011   -0.835014    0.022184
 ---------------------------------------------------------------------
 Rotational constants (GHZ):      5.5671101      2.7443126      2.0029100
 Leave Link  202 at Wed Jul 10 12:57:51 2013, MaxMem=  262144000 cpu:       0.0
 (Enter /cerebro/home/software/apps/g09/l301.exe)
 Standard basis: 6-311++G(d,p) (5D, 7F)
 Ernie: Thresh=  0.10000D-02 Tol=  0.10000D-05 Strict=F.
 There are   167 symmetry adapted basis functions of A   symmetry.
 Integral buffers will be    131072 words long.
 Raffenetti 2 integral format.
 Two-electron integral symmetry is turned on.
   167 basis functions,   260 primitive gaussians,   172 cartesian basis functions
    24 alpha electrons       24 beta electrons
       nuclear repulsion energy       211.7335503350 Hartrees.
 IExCor=  402 DFT=T Ex+Corr=B3LYP ExCW=0 ScaHFX=  0.200000
 ScaDFX=  0.800000  0.720000  1.000000  0.810000 ScalE2=  1.000000  1.000000
 IRadAn=      5 IRanWt=     -1 IRanGd=            0 ICorTp=0
 NAtoms=   12 NActive=   12 NUniq=   12 SFac= 7.50D-01 NAtFMM=   80 NAOKFM=F Big=F
 Leave Link  301 at Wed Jul 10 12:57:52 2013, MaxMem=  262144000 cpu:       0.1
 (Enter /cerebro/home/software/apps/g09/l302.exe)
 NPDir=0 NMtPBC=     1 NCelOv=     1 NCel=       1 NClECP=     1 NCelD=      1
         NCelK=      1 NCelE2=     1 NClLst=     1 CellRange=     0.0.
 One-electron integrals computed using PRISM.
 NBasis=   167 RedAO= T  NBF=   167
 NBsUse=   167 1.00D-06 NBFU=   167
 Precomputing XC quadrature grid using
 IXCGrd= 2 IRadAn=           5 IRanWt=          -1 IRanGd=           0 AccXCQ= 1.00D-10.
 NRdTot=    1019 NPtTot=      274288 NUsed=      281590 NTot=      281622
 NSgBfM=   172   172   172   172   172 NAtAll=    12    12.
 Leave Link  302 at Wed Jul 10 12:57:52 2013, MaxMem=  262144000 cpu:       0.6
 (Enter /cerebro/home/software/apps/g09/l303.exe)
 DipDrv:  MaxL=1.
 Leave Link  303 at Wed Jul 10 12:57:52 2013, MaxMem=  262144000 cpu:       0.1
 (Enter /cerebro/home/software/apps/g09/l401.exe)
 Initial guess read from the read-write file.
 B after Tr=     0.000000    0.000000    0.000000
         Rot=    1.000000    0.000000    0.000000    0.000000 Ang=   0.00 deg.
 Guess basis will be translated and rotated to current coordinates.
 Initial guess orbital symmetries:
       Occupied  (A) (A) (A) (A) (A) (A) (A) (A) (A) (A) (A) (A)
                 (A) (A) (A) (A) (A) (A) (A) (A) (A) (A) (A) (A)
       Virtual   (A) (A) (A) (A) (A) (A) (A) (A) (A) (A) (A) (A)
                 (A) (A) (A) (A) (A) (A) (A) (A) (A) (A) (A) (A)
                 (A) (A) (A) (A) (A) (A) (A) (A) (A) (A) (A) (A)
                 (A) (A) (A) (A) (A) (A) (A) (A) (A) (A) (A) (A)
                 (A) (A) (A) (A) (A) (A) (A) (A) (A) (A) (A) (A)
                 (A) (A) (A) (A) (A) (A) (A) (A) (A) (A) (A) (A)
                 (A) (A) (A) (A) (A) (A) (A) (A) (A) (A) (A) (A)
                 (A) (A) (A) (A) (A) (A) (A) (A) (A) (A) (A) (A)
                 (A) (A) (A) (A) (A) (A) (A) (A) (A) (A) (A) (A)
                 (A) (A) (A) (A) (A) (A) (A) (A) (A) (A) (A) (A)
                 (A) (A) (A) (A) (A) (A) (A) (A) (A) (A) (A) (A)
                 (A) (A) (A) (A) (A) (A) (A) (A) (A) (A) (A)
 The electronic state of the initial guess is 1-A.
 Generating alternative initial guess.
 Harris functional with IExCor=  402 diagonalized for initial guess.
 ExpMin= 3.60D-02 ExpMax= 1.06D+05 ExpMxC= 3.62D+03 IAcc=3 IRadAn=         5 AccDes= 0.00D+00
 HarFok:  IExCor=  402 AccDes= 0.00D+00 IRadAn=         5 IDoV= 1
 ScaDFX=  1.000000  1.000000  1.000000  1.000000
 FoFCou: FMM=F IPFlag=           0 FMFlag=      100000 FMFlg1=           0
         NFxFlg=           0 DoJE=T BraDBF=F KetDBF=T FulRan=T
         Omega=  0.000000  0.000000  1.000000  0.000000  0.000000 ICntrl=     500 IOpCl=  0
         NMat0=    1 NMatS0=    1 NMatT0=    0 NMatD0=    1 NMtDS0=    0 NMtDT0=    0
         I1Cent=           4 NGrid=           0.
 Petite list used in FoFCou.
 Harris En= -616.914742930602    
 Leave Link  401 at Wed Jul 10 12:58:00 2013, MaxMem=  262144000 cpu:       7.8
 (Enter /cerebro/home/software/apps/g09/l502.exe)
 Closed shell SCF:
 Requested convergence on RMS density matrix=1.00D-12 within 128 cycles.
 Requested convergence on MAX density matrix=1.00D-10.
 Requested convergence on             energy=1.00D-10.
 No special actions if energy rises.
 Using DIIS extrapolation, IDIIS=  1040.
 Integral symmetry usage will be decided dynamically.
       281469 words used for storage of precomputed grid.
 Keep R1 ints in memory in canonical form, NReq=113664361.
 IEnd=      390694 IEndB=      390694 NGot=   262144000 MDV=   151114794
 LenX=   151114794 LenY=   151084769
 Symmetry not used in FoFDir.
 MinBra= 0 MaxBra= 2 Meth= 1.
 IRaf=       0 NMat=   1 IRICut=       1 DoRegI=T DoRafI=F ISym2E= 0 JSym2E=0.

 Cycle   1  Pass 1  IDiag  1:
 E= -616.895647615392    
 DIIS: error= 6.16D-04 at cycle   1 NSaved=   1.
 NSaved= 1 IEnMin= 1 EnMin= -616.895647615392     IErMin= 1 ErrMin= 6.16D-04
 ErrMax= 6.16D-04 EMaxC= 1.00D-01 BMatC= 1.20D-04 BMatP= 1.20D-04
 IDIUse=3 WtCom= 9.94D-01 WtEn= 6.16D-03
 Coeff-Com:  0.100D+01
 Coeff-En:   0.100D+01
 Coeff:      0.100D+01
 Gap=     0.249 Goal=   None    Shift=    0.000
 RMSDP=1.53D-04 MaxDP=4.93D-03              OVMax= 3.15D-03

 Cycle   2  Pass 1  IDiag  1:
 E= -616.895733679851     Delta-E=       -0.000086064459 Rises=F Damp=F
 DIIS: error= 3.29D-04 at cycle   2 NSaved=   2.
 NSaved= 2 IEnMin= 2 EnMin= -616.895733679851     IErMin= 2 ErrMin= 3.29D-04
 ErrMax= 3.29D-04 EMaxC= 1.00D-01 BMatC= 2.69D-05 BMatP= 1.20D-04
 IDIUse=3 WtCom= 9.97D-01 WtEn= 3.29D-03
 Coeff-Com:  0.253D+00 0.747D+00
 Coeff-En:   0.000D+00 0.100D+01
 Coeff:      0.252D+00 0.748D+00
 Gap=     0.248 Goal=   None    Shift=    0.000
 RMSDP=8.57D-05 MaxDP=1.90D-03 DE=-8.61D-05 OVMax= 2.02D-03

 Cycle   3  Pass 1  IDiag  1:
 E= -616.895748324939     Delta-E=       -0.000014645088 Rises=F Damp=F
 DIIS: error= 2.42D-04 at cycle   3 NSaved=   3.
 NSaved= 3 IEnMin= 3 EnMin= -616.895748324939     IErMin= 3 ErrMin= 2.42D-04
 ErrMax= 2.42D-04 EMaxC= 1.00D-01 BMatC= 1.41D-05 BMatP= 2.69D-05
 IDIUse=3 WtCom= 9.98D-01 WtEn= 2.42D-03
 Coeff-Com:  0.173D-01 0.418D+00 0.565D+00
 Coeff-En:   0.000D+00 0.344D+00 0.656D+00
 Coeff:      0.172D-01 0.418D+00 0.565D+00
 Gap=     0.248 Goal=   None    Shift=    0.000
 RMSDP=5.21D-05 MaxDP=1.47D-03 DE=-1.46D-05 OVMax= 9.14D-04

 Cycle   4  Pass 1  IDiag  1:
 E= -616.895762841240     Delta-E=       -0.000014516301 Rises=F Damp=F
 DIIS: error= 5.54D-05 at cycle   4 NSaved=   4.
 NSaved= 4 IEnMin= 4 EnMin= -616.895762841240     IErMin= 4 ErrMin= 5.54D-05
 ErrMax= 5.54D-05 EMaxC= 1.00D-01 BMatC= 5.28D-07 BMatP= 1.41D-05
 IDIUse=1 WtCom= 1.00D+00 WtEn= 0.00D+00
 Coeff-Com:  0.503D-03 0.187D+00 0.283D+00 0.529D+00
 Coeff:      0.503D-03 0.187D+00 0.283D+00 0.529D+00
 Gap=     0.248 Goal=   None    Shift=    0.000
 RMSDP=1.10D-05 MaxDP=4.05D-04 DE=-1.45D-05 OVMax= 1.78D-04

 Cycle   5  Pass 1  IDiag  1:
 E= -616.895763297407     Delta-E=       -0.000000456167 Rises=F Damp=F
 DIIS: error= 1.39D-05 at cycle   5 NSaved=   5.
 NSaved= 5 IEnMin= 5 EnMin= -616.895763297407     IErMin= 5 ErrMin= 1.39D-05
 ErrMax= 1.39D-05 EMaxC= 1.00D-01 BMatC= 5.01D-08 BMatP= 5.28D-07
 IDIUse=1 WtCom= 1.00D+00 WtEn= 0.00D+00
 Coeff-Com: -0.197D-02 0.454D-01 0.746D-01 0.266D+00 0.616D+00
 Coeff:     -0.197D-02 0.454D-01 0.746D-01 0.266D+00 0.616D+00
 Gap=     0.248 Goal=   None    Shift=    0.000
 RMSDP=2.07D-06 MaxDP=5.15D-05 DE=-4.56D-07 OVMax= 1.17D-04

 Cycle   6  Pass 1  IDiag  1:
 E= -616.895763338299     Delta-E=       -0.000000040892 Rises=F Damp=F
 DIIS: error= 6.88D-06 at cycle   6 NSaved=   6.
 NSaved= 6 IEnMin= 6 EnMin= -616.895763338299     IErMin= 6 ErrMin= 6.88D-06
 ErrMax= 6.88D-06 EMaxC= 1.00D-01 BMatC= 8.46D-09 BMatP= 5.01D-08
 IDIUse=1 WtCom= 1.00D+00 WtEn= 0.00D+00
 Coeff-Com: -0.129D-02 0.107D-01 0.197D-01 0.110D+00 0.363D+00 0.498D+00
 Coeff:     -0.129D-02 0.107D-01 0.197D-01 0.110D+00 0.363D+00 0.498D+00
 Gap=     0.248 Goal=   None    Shift=    0.000
 RMSDP=8.18D-07 MaxDP=2.01D-05 DE=-4.09D-08 OVMax= 5.89D-05

 Cycle   7  Pass 1  IDiag  1:
 E= -616.895763346619     Delta-E=       -0.000000008321 Rises=F Damp=F
 DIIS: error= 1.47D-06 at cycle   7 NSaved=   7.
 NSaved= 7 IEnMin= 7 EnMin= -616.895763346619     IErMin= 7 ErrMin= 1.47D-06
 ErrMax= 1.47D-06 EMaxC= 1.00D-01 BMatC= 5.57D-10 BMatP= 8.46D-09
 IDIUse=1 WtCom= 1.00D+00 WtEn= 0.00D+00
 Coeff-Com: -0.355D-03-0.121D-02-0.840D-03 0.153D-01 0.880D-01 0.246D+00
 Coeff-Com:  0.653D+00
 Coeff:     -0.355D-03-0.121D-02-0.840D-03 0.153D-01 0.880D-01 0.246D+00
 Coeff:      0.653D+00
 Gap=     0.248 Goal=   None    Shift=    0.000
 RMSDP=4.26D-07 MaxDP=1.44D-05 DE=-8.32D-09 OVMax= 1.11D-05

 Cycle   8  Pass 1  IDiag  1:
 E= -616.895763347159     Delta-E=       -0.000000000540 Rises=F Damp=F
 DIIS: error= 3.35D-07 at cycle   8 NSaved=   8.
 NSaved= 8 IEnMin= 8 EnMin= -616.895763347159     IErMin= 8 ErrMin= 3.35D-07
 ErrMax= 3.35D-07 EMaxC= 1.00D-01 BMatC= 3.32D-11 BMatP= 5.57D-10
 IDIUse=1 WtCom= 1.00D+00 WtEn= 0.00D+00
 Coeff-Com: -0.539D-04-0.143D-02-0.191D-02-0.186D-02 0.106D-01 0.718D-01
 Coeff-Com:  0.286D+00 0.637D+00
 Coeff:     -0.539D-04-0.143D-02-0.191D-02-0.186D-02 0.106D-01 0.718D-01
 Coeff:      0.286D+00 0.637D+00
 Gap=     0.248 Goal=   None    Shift=    0.000
 RMSDP=9.91D-08 MaxDP=4.10D-06 DE=-5.40D-10 OVMax= 1.53D-06

 Cycle   9  Pass 1  IDiag  1:
 E= -616.895763347192     Delta-E=       -0.000000000032 Rises=F Damp=F
 DIIS: error= 6.06D-08 at cycle   9 NSaved=   9.
 NSaved= 9 IEnMin= 9 EnMin= -616.895763347192     IErMin= 9 ErrMin= 6.06D-08
 ErrMax= 6.06D-08 EMaxC= 1.00D-01 BMatC= 1.37D-12 BMatP= 3.32D-11
 IDIUse=1 WtCom= 1.00D+00 WtEn= 0.00D+00
 Coeff-Com:  0.140D-04-0.304D-03-0.445D-03-0.158D-02-0.380D-02 0.263D-03
 Coeff-Com:  0.305D-01 0.200D+00 0.775D+00
 Coeff:      0.140D-04-0.304D-03-0.445D-03-0.158D-02-0.380D-02 0.263D-03
 Coeff:      0.305D-01 0.200D+00 0.775D+00
 Gap=     0.248 Goal=   None    Shift=    0.000
 RMSDP=2.68D-08 MaxDP=8.00D-07 DE=-3.23D-11 OVMax= 3.46D-07

 Cycle  10  Pass 1  IDiag  1:
 E= -616.895763347193     Delta-E=       -0.000000000002 Rises=F Damp=F
 DIIS: error= 1.70D-08 at cycle  10 NSaved=  10.
 NSaved=10 IEnMin=10 EnMin= -616.895763347193     IErMin=10 ErrMin= 1.70D-08
 ErrMax= 1.70D-08 EMaxC= 1.00D-01 BMatC= 5.24D-14 BMatP= 1.37D-12
 IDIUse=1 WtCom= 1.00D+00 WtEn= 0.00D+00
 Coeff-Com:  0.635D-05-0.351D-04-0.648D-04-0.378D-03-0.163D-02-0.318D-02
 Coeff-Com: -0.296D-02 0.332D-01 0.230D+00 0.745D+00
 Coeff:      0.635D-05-0.351D-04-0.648D-04-0.378D-03-0.163D-02-0.318D-02
 Coeff:     -0.296D-02 0.332D-01 0.230D+00 0.745D+00
 Gap=     0.248 Goal=   None    Shift=    0.000
 RMSDP=1.35D-08 MaxDP=5.40D-07 DE=-1.71D-12 OVMax= 6.53D-08

 Cycle  11  Pass 1  IDiag  1:
 E= -616.895763347194     Delta-E=       -0.000000000001 Rises=F Damp=F
 DIIS: error= 2.74D-09 at cycle  11 NSaved=  11.
 NSaved=11 IEnMin=11 EnMin= -616.895763347194     IErMin=11 ErrMin= 2.74D-09
 ErrMax= 2.74D-09 EMaxC= 1.00D-01 BMatC= 1.48D-15 BMatP= 5.24D-14
 IDIUse=1 WtCom= 1.00D+00 WtEn= 0.00D+00
 Coeff-Com:  0.906D-06 0.482D-05 0.294D-05-0.274D-04-0.221D-03-0.701D-03
 Coeff-Com: -0.176D-02-0.300D-03 0.239D-01 0.168D+00 0.811D+00
 Coeff:      0.906D-06 0.482D-05 0.294D-05-0.274D-04-0.221D-03-0.701D-03
 Coeff:     -0.176D-02-0.300D-03 0.239D-01 0.168D+00 0.811D+00
 Gap=     0.248 Goal=   None    Shift=    0.000
 RMSDP=2.14D-09 MaxDP=8.96D-08 DE=-6.82D-13 OVMax= 1.23D-08

 Cycle  12  Pass 1  IDiag  1:
 E= -616.895763347195     Delta-E=        0.000000000000 Rises=F Damp=F
 DIIS: error= 8.52D-10 at cycle  12 NSaved=  12.
 NSaved=12 IEnMin=12 EnMin= -616.895763347195     IErMin=12 ErrMin= 8.52D-10
 ErrMax= 8.52D-10 EMaxC= 1.00D-01 BMatC= 1.82D-16 BMatP= 1.48D-15
 IDIUse=1 WtCom= 1.00D+00 WtEn= 0.00D+00
 Coeff-Com:  0.788D-07 0.357D-05 0.422D-05 0.326D-05-0.176D-04-0.136D-03
 Coeff-Com: -0.578D-03-0.164D-02-0.117D-02 0.288D-01 0.300D+00 0.675D+00
 Coeff:      0.788D-07 0.357D-05 0.422D-05 0.326D-05-0.176D-04-0.136D-03
 Coeff:     -0.578D-03-0.164D-02-0.117D-02 0.288D-01 0.300D+00 0.675D+00
 Gap=     0.248 Goal=   None    Shift=    0.000
 RMSDP=2.99D-10 MaxDP=7.63D-09 DE=-4.55D-13 OVMax= 4.02D-09

 Cycle  13  Pass 1  IDiag  1:
 E= -616.895763347193     Delta-E=        0.000000000002 Rises=F Damp=F
 DIIS: error= 2.43D-10 at cycle  13 NSaved=  13.
 NSaved=13 IEnMin=12 EnMin= -616.895763347195     IErMin=13 ErrMin= 2.43D-10
 ErrMax= 2.43D-10 EMaxC= 1.00D-01 BMatC= 1.98D-17 BMatP= 1.82D-16
 IDIUse=1 WtCom= 1.00D+00 WtEn= 0.00D+00
 Coeff-Com: -0.269D-07 0.127D-05 0.168D-05 0.315D-05 0.807D-05-0.107D-04
 Coeff-Com: -0.131D-03-0.730D-03-0.232D-02 0.157D-02 0.844D-01 0.314D+00
 Coeff-Com:  0.603D+00
 Coeff:     -0.269D-07 0.127D-05 0.168D-05 0.315D-05 0.807D-05-0.107D-04
 Coeff:     -0.131D-03-0.730D-03-0.232D-02 0.157D-02 0.844D-01 0.314D+00
 Coeff:      0.603D+00
 Gap=     0.248 Goal=   None    Shift=    0.000
 RMSDP=8.85D-11 MaxDP=3.30D-09 DE= 1.71D-12 OVMax= 1.16D-09

 Cycle  14  Pass 1  IDiag  1:
 E= -616.895763347192     Delta-E=        0.000000000001 Rises=F Damp=F
 DIIS: error= 4.73D-11 at cycle  14 NSaved=  14.
 NSaved=14 IEnMin=12 EnMin= -616.895763347195     IErMin=14 ErrMin= 4.73D-11
 ErrMax= 4.73D-11 EMaxC= 1.00D-01 BMatC= 6.99D-19 BMatP= 1.98D-17
 IDIUse=1 WtCom= 1.00D+00 WtEn= 0.00D+00
 Coeff-Com: -0.134D-07 0.242D-06 0.363D-06 0.935D-06 0.358D-05 0.317D-05
 Coeff-Com: -0.103D-04-0.150D-03-0.736D-03-0.102D-02 0.101D-01 0.654D-01
 Coeff-Com:  0.219D+00 0.708D+00
 Coeff:     -0.134D-07 0.242D-06 0.363D-06 0.935D-06 0.358D-05 0.317D-05
 Coeff:     -0.103D-04-0.150D-03-0.736D-03-0.102D-02 0.101D-01 0.654D-01
 Coeff:      0.219D+00 0.708D+00
 Gap=     0.248 Goal=   None    Shift=    0.000
 RMSDP=3.66D-11 MaxDP=1.32D-09 DE= 7.96D-13 OVMax= 2.33D-10

 Cycle  15  Pass 1  IDiag  1:
 E= -616.895763347193     Delta-E=       -0.000000000001 Rises=F Damp=F
 DIIS: error= 6.09D-12 at cycle  15 NSaved=  15.
 NSaved=15 IEnMin=12 EnMin= -616.895763347195     IErMin=15 ErrMin= 6.09D-12
 ErrMax= 6.09D-12 EMaxC= 1.00D-01 BMatC= 1.24D-20 BMatP= 6.99D-19
 IDIUse=1 WtCom= 1.00D+00 WtEn= 0.00D+00
 Coeff-Com: -0.151D-08-0.760D-08 0.242D-08 0.653D-07 0.402D-06 0.134D-05
 Coeff-Com:  0.433D-05 0.241D-05-0.598D-04-0.305D-03-0.203D-02-0.108D-02
 Coeff-Com:  0.224D-01 0.156D+00 0.825D+00
 Coeff:     -0.151D-08-0.760D-08 0.242D-08 0.653D-07 0.402D-06 0.134D-05
 Coeff:      0.433D-05 0.241D-05-0.598D-04-0.305D-03-0.203D-02-0.108D-02
 Coeff:      0.224D-01 0.156D+00 0.825D+00
 Gap=     0.248 Goal=   None    Shift=    0.000
 RMSDP=2.45D-11 MaxDP=1.44D-09 DE=-1.14D-12 OVMax= 3.48D-11

 Cycle  16  Pass 1  IDiag  1:
 E= -616.895763347194     Delta-E=        0.000000000000 Rises=F Damp=F
 DIIS: error= 2.10D-12 at cycle  16 NSaved=  16.
 NSaved=16 IEnMin=12 EnMin= -616.895763347195     IErMin=16 ErrMin= 2.10D-12
 ErrMax= 2.10D-12 EMaxC= 1.00D-01 BMatC= 3.18D-22 BMatP= 1.24D-20
 IDIUse=1 WtCom= 1.00D+00 WtEn= 0.00D+00
 Large coefficients: NSaved= 16 BigCof=    0.00 CofMax=   10.00 Det=-3.59D-21
 Inversion failed.  Reducing to 15 matrices.
 Coeff-Com: -0.471D-08-0.524D-08-0.311D-08 0.963D-08 0.174D-06 0.813D-06
 Coeff-Com:  0.247D-05 0.170D-05-0.338D-04-0.468D-03-0.115D-02-0.707D-04
 Coeff-Com:  0.131D-01 0.139D+00 0.850D+00
 Coeff:     -0.471D-08-0.524D-08-0.311D-08 0.963D-08 0.174D-06 0.813D-06
 Coeff:      0.247D-05 0.170D-05-0.338D-04-0.468D-03-0.115D-02-0.707D-04
 Coeff:      0.131D-01 0.139D+00 0.850D+00
 Gap=     0.248 Goal=   None    Shift=    0.000
 RMSDP=1.55D-11 MaxDP=8.01D-10 DE=-4.55D-13 OVMax= 7.65D-12

 Cycle  17  Pass 1  IDiag  1:
 E= -616.895763347192     Delta-E=        0.000000000001 Rises=F Damp=F
 DIIS: error= 2.15D-12 at cycle  17 NSaved=  16.
 NSaved=16 IEnMin=11 EnMin= -616.895763347195     IErMin=15 ErrMin= 2.10D-12
 ErrMax= 2.15D-12 EMaxC= 1.00D-01 BMatC= 2.00D-22 BMatP= 3.18D-22
 IDIUse=1 WtCom= 1.00D+00 WtEn= 0.00D+00
 Large coefficients: NSaved= 16 BigCof=    0.00 CofMax=   10.00 Det=-5.89D-22
 Inversion failed.  Reducing to 15 matrices.
 Coeff-Com:  0.356D-09 0.299D-08 0.612D-08 0.270D-07 0.103D-06 0.318D-06
 Coeff-Com:  0.415D-06-0.748D-05-0.114D-03-0.341D-03-0.472D-03 0.193D-02
 Coeff-Com:  0.435D-01 0.424D+00 0.531D+00
 Coeff:      0.356D-09 0.299D-08 0.612D-08 0.270D-07 0.103D-06 0.318D-06
 Coeff:      0.415D-06-0.748D-05-0.114D-03-0.341D-03-0.472D-03 0.193D-02
 Coeff:      0.435D-01 0.424D+00 0.531D+00
 Gap=     0.248 Goal=   None    Shift=    0.000
 RMSDP=1.02D-11 MaxDP=6.35D-10 DE= 1.14D-12 OVMax= 3.39D-12

 Cycle  18  Pass 1  IDiag  1:
 E= -616.895763347194     Delta-E=       -0.000000000001 Rises=F Damp=F
 DIIS: error= 3.52D-12 at cycle  18 NSaved=  16.
 NSaved=16 IEnMin=10 EnMin= -616.895763347195     IErMin=14 ErrMin= 2.10D-12
 ErrMax= 3.52D-12 EMaxC= 1.00D-01 BMatC= 3.72D-22 BMatP= 2.00D-22
 IDIUse=1 WtCom= 1.00D+00 WtEn= 0.00D+00
 Large coefficients: NSaved= 16 BigCof=    0.00 CofMax=   10.00 Det=-4.31D-22
 Inversion failed.  Reducing to 15 matrices.
 Coeff-Com:  0.675D-09-0.133D-08 0.195D-08 0.232D-07 0.163D-06 0.923D-06
 Coeff-Com: -0.114D-05-0.529D-04-0.222D-03-0.583D-03-0.240D-03 0.238D-01
 Coeff-Com:  0.293D+00 0.406D+00 0.278D+00
 Coeff:      0.675D-09-0.133D-08 0.195D-08 0.232D-07 0.163D-06 0.923D-06
 Coeff:     -0.114D-05-0.529D-04-0.222D-03-0.583D-03-0.240D-03 0.238D-01
 Coeff:      0.293D+00 0.406D+00 0.278D+00
 Gap=     0.248 Goal=   None    Shift=    0.000
 RMSDP=9.36D-12 MaxDP=8.21D-10 DE=-1.36D-12 OVMax= 3.22D-12

 Cycle  19  Pass 1  IDiag  1:
 E= -616.895763347193     Delta-E=        0.000000000001 Rises=F Damp=F
 DIIS: error= 1.37D-12 at cycle  19 NSaved=  16.
 NSaved=16 IEnMin= 9 EnMin= -616.895763347195     IErMin=16 ErrMin= 1.37D-12
 ErrMax= 1.37D-12 EMaxC= 1.00D-01 BMatC= 5.34D-23 BMatP= 2.00D-22
 IDIUse=1 WtCom= 1.00D+00 WtEn= 0.00D+00
 Large coefficients: NSaved= 16 BigCof=    0.00 CofMax=   10.00 Det=-2.22D-22
 Inversion failed.  Reducing to 15 matrices.
 Coeff-Com: -0.338D-08-0.231D-08 0.173D-07 0.169D-06 0.898D-06-0.597D-06
 Coeff-Com: -0.434D-04-0.174D-03-0.437D-03-0.176D-03 0.180D-01 0.210D+00
 Coeff-Com:  0.235D+00 0.135D+00 0.403D+00
 Coeff:     -0.338D-08-0.231D-08 0.173D-07 0.169D-06 0.898D-06-0.597D-06
 Coeff:     -0.434D-04-0.174D-03-0.437D-03-0.176D-03 0.180D-01 0.210D+00
 Coeff:      0.235D+00 0.135D+00 0.403D+00
 Gap=     0.248 Goal=   None    Shift=    0.000
 RMSDP=2.45D-12 MaxDP=1.08D-10 DE= 1.14D-12 OVMax= 1.02D-12

 Cycle  20  Pass 1  IDiag  1:
 E= -616.895763347193     Delta-E=        0.000000000000 Rises=F Damp=F
 DIIS: error= 1.94D-12 at cycle  20 NSaved=  16.
 NSaved=16 IEnMin= 8 EnMin= -616.895763347195     IErMin=15 ErrMin= 1.37D-12
 ErrMax= 1.94D-12 EMaxC= 1.00D-01 BMatC= 1.37D-22 BMatP= 5.34D-23
 IDIUse=1 WtCom= 1.00D+00 WtEn= 0.00D+00
 Large coefficients: NSaved= 16 BigCof=    0.00 CofMax=   10.00 Det=-7.86D-23
 Inversion failed.  Reducing to 15 matrices.
 Large coefficients: NSaved= 15 BigCof=    0.00 CofMax=   10.00 Det=-7.87D-23
 Inversion failed.  Reducing to 14 matrices.
 Large coefficients: NSaved= 14 BigCof=    0.00 CofMax=   10.00 Det=-7.87D-23
 Inversion failed.  Reducing to 13 matrices.
 Large coefficients: NSaved= 13 BigCof=    0.00 CofMax=   10.00 Det=-7.87D-23
 Inversion failed.  Reducing to 12 matrices.
 Large coefficients: NSaved= 12 BigCof=    0.00 CofMax=   10.00 Det=-7.87D-23
 Inversion failed.  Reducing to 11 matrices.
 Large coefficients: NSaved= 11 BigCof=    0.00 CofMax=   10.00 Det=-7.87D-23
 Inversion failed.  Reducing to 10 matrices.
 Large coefficients: NSaved= 10 BigCof=    0.00 CofMax=   10.00 Det=-7.87D-23
 Inversion failed.  Reducing to  9 matrices.
 Coeff-Com: -0.144D-05-0.244D-04-0.795D-04-0.192D-03 0.127D-01 0.148D+00
 Coeff-Com:  0.806D-01 0.529D+00 0.230D+00
 Coeff:     -0.144D-05-0.244D-04-0.795D-04-0.192D-03 0.127D-01 0.148D+00
 Coeff:      0.806D-01 0.529D+00 0.230D+00
 Gap=     0.248 Goal=   None    Shift=    0.000
 RMSDP=3.18D-12 MaxDP=1.45D-10 DE=-2.27D-13 OVMax= 1.16D-12

 Cycle  21  Pass 1  IDiag  1:
 E= -616.895763347195     Delta-E=       -0.000000000002 Rises=F Damp=F
 DIIS: error= 4.42D-12 at cycle  21 NSaved=  10.
 NSaved=10 IEnMin=10 EnMin= -616.895763347195     IErMin= 8 ErrMin= 1.37D-12
 ErrMax= 4.42D-12 EMaxC= 1.00D-01 BMatC= 1.99D-22 BMatP= 5.34D-23
 IDIUse=1 WtCom= 1.00D+00 WtEn= 0.00D+00
 Coeff-Com: -0.106D-05-0.185D-04-0.578D-04-0.143D-03 0.808D-02 0.934D-01
 Coeff-Com:  0.901D-01 0.491D+00 0.138D+00 0.179D+00
 Coeff:     -0.106D-05-0.185D-04-0.578D-04-0.143D-03 0.808D-02 0.934D-01
 Coeff:      0.901D-01 0.491D+00 0.138D+00 0.179D+00
 Gap=     0.248 Goal=   None    Shift=    0.000
 RMSDP=1.57D-12 MaxDP=5.45D-11 DE=-1.82D-12 OVMax= 7.54D-13

 Cycle  22  Pass 1  IDiag  1:
 E= -616.895763347193     Delta-E=        0.000000000002 Rises=F Damp=F
 DIIS: error= 2.52D-12 at cycle  22 NSaved=  11.
 NSaved=11 IEnMin=10 EnMin= -616.895763347195     IErMin= 8 ErrMin= 1.37D-12
 ErrMax= 2.52D-12 EMaxC= 1.00D-01 BMatC= 1.45D-22 BMatP= 5.34D-23
 IDIUse=1 WtCom= 1.00D+00 WtEn= 0.00D+00
 Coeff-Com: -0.963D-06-0.168D-04-0.524D-04-0.133D-03 0.726D-02 0.941D-01
 Coeff-Com:  0.419D-01 0.456D+00 0.108D+00 0.167D+00 0.126D+00
 Coeff:     -0.963D-06-0.168D-04-0.524D-04-0.133D-03 0.726D-02 0.941D-01
 Coeff:      0.419D-01 0.456D+00 0.108D+00 0.167D+00 0.126D+00
 Gap=     0.248 Goal=   None    Shift=    0.000
[...]
     Eigenvalues ---    0.28968   0.31970   0.33295   0.33711   0.34174
     Eigenvalues ---    0.34462   0.35038   0.35424   0.35879   0.62391
     Eigenvalues --- 1000.000001000.000001000.000001000.000001000.00000
     Eigenvalues --- 1000.000001000.000001000.000001000.000001000.00000
     Eigenvalues --- 1000.000001000.000001000.000001000.000001000.00000
     Eigenvalues --- 1000.000001000.000001000.00000
 Angle between quadratic step and forces=  57.93 degrees.
 Linear search not attempted -- first point.
 Iteration  1 RMS(Cart)=  0.00000072 RMS(Int)=  0.00000000
 Variable       Old X    -DE/DX   Delta X   Delta X   Delta X     New X
                                 (Linear)    (Quad)   (Total)
    R1        2.87701   0.00000   0.00000   0.00000   0.00000   2.87701
    R2        2.06201   0.00000   0.00000   0.00000   0.00000   2.06201
    R3        2.06407   0.00000   0.00000   0.00000   0.00000   2.06407
    R4        2.06801   0.00000   0.00000   0.00000   0.00000   2.06801
    R5        2.82326   0.00000   0.00000   0.00000   0.00000   2.82326
    R6        2.05879   0.00000   0.00000   0.00000   0.00000   2.05879
    R7        3.50263   0.00000   0.00000   0.00000   0.00000   3.50263
    R8        2.51437   0.00000   0.00000   0.00000   0.00000   2.51437
    R9        2.05490   0.00000   0.00000   0.00000   0.00000   2.05490
   R10        2.05162   0.00000   0.00000   0.00000   0.00000   2.05162
   R11        2.04799   0.00000   0.00000   0.00000   0.00000   2.04799
    A1        1.93678   0.00000   0.00000   0.00000   0.00000   1.93678
    A2        1.93621   0.00000   0.00000   0.00000   0.00000   1.93621
    A3        1.90578   0.00000   0.00000   0.00000   0.00000   1.90578
    A4        1.89446   0.00000   0.00000   0.00000   0.00000   1.89446
    A5        1.89690   0.00000   0.00000   0.00000   0.00000   1.89690
    A6        1.89278   0.00000   0.00000   0.00000   0.00000   1.89278
    A7        1.98458   0.00000   0.00000   0.00000   0.00000   1.98458
    A8        1.93787   0.00000   0.00000   0.00000   0.00000   1.93787
    A9        1.89607   0.00000   0.00000   0.00000   0.00000   1.89607
   A10        1.92838   0.00000   0.00000   0.00000   0.00000   1.92838
   A11        1.89445   0.00000   0.00000   0.00000   0.00000   1.89445
   A12        1.81379   0.00000   0.00000   0.00000   0.00000   1.81379
   A13        2.16130   0.00000   0.00000   0.00000   0.00000   2.16130
   A14        2.01966   0.00000   0.00000   0.00000   0.00000   2.01966
   A15        2.10207   0.00000   0.00000   0.00000   0.00000   2.10207
   A16        2.12377   0.00000   0.00000   0.00000   0.00000   2.12377
   A17        2.11988   0.00000   0.00000   0.00000   0.00000   2.11988
   A18        2.03953   0.00000   0.00000   0.00000   0.00000   2.03953
    D1        3.10842   0.00000   0.00000   0.00000   0.00000   3.10841
    D2       -0.98720   0.00000   0.00000   0.00000   0.00000  -0.98720
    D3        0.99699   0.00000   0.00000   0.00000   0.00000   0.99699
    D4        1.00091   0.00000   0.00000   0.00000   0.00000   1.00091
    D5       -3.09471   0.00000   0.00000   0.00000   0.00000  -3.09471
    D6       -1.11051   0.00000   0.00000   0.00000   0.00000  -1.11051
    D7       -1.08420   0.00000   0.00000   0.00000   0.00000  -1.08420
    D8        1.10336   0.00000   0.00000   0.00000   0.00000   1.10337
    D9        3.08756   0.00000   0.00000   0.00000   0.00000   3.08756
   D10        2.15020   0.00000   0.00000   0.00000   0.00000   2.15020
   D11       -0.97227   0.00000   0.00000   0.00000   0.00000  -0.97227
   D12       -0.04241   0.00000   0.00000   0.00000   0.00000  -0.04241
   D13        3.11830   0.00000   0.00000   0.00000   0.00000   3.11830
   D14       -2.02065   0.00000   0.00000   0.00000   0.00000  -2.02065
   D15        1.14006   0.00000   0.00000   0.00000   0.00000   1.14006
   D16        0.03180   0.00000   0.00000   0.00000   0.00000   0.03180
   D17       -3.11225   0.00000   0.00000   0.00000   0.00000  -3.11225
   D18       -3.12977   0.00000   0.00000   0.00000   0.00000  -3.12977
   D19        0.00936   0.00000   0.00000   0.00000   0.00000   0.00936
         Item               Value     Threshold  Converged?
 Maximum Force            0.000000     0.000002     YES
 RMS     Force            0.000000     0.000001     YES
 Maximum Displacement     0.000002     0.000006     YES
 RMS     Displacement     0.000001     0.000004     YES
 Predicted change in Energy=-3.453953D-13
 Optimization completed.
    -- Stationary point found.
                           ----------------------------
                           !   Optimized Parameters   !
                           ! (Angstroms and Degrees)  !
 --------------------------                            --------------------------
 ! Name  Definition              Value          Derivative Info.                !
 --------------------------------------------------------------------------------
 ! R1    R(1,2)                  1.5224         -DE/DX =    0.0                 !
 ! R2    R(1,6)                  1.0912         -DE/DX =    0.0                 !
 ! R3    R(1,10)                 1.0923         -DE/DX =    0.0                 !
 ! R4    R(1,11)                 1.0943         -DE/DX =    0.0                 !
 ! R5    R(2,3)                  1.494          -DE/DX =    0.0                 !
 ! R6    R(2,9)                  1.0895         -DE/DX =    0.0                 !
 ! R7    R(2,12)                 1.8535         -DE/DX =    0.0                 !
 ! R8    R(3,4)                  1.3305         -DE/DX =    0.0                 !
 ! R9    R(3,8)                  1.0874         -DE/DX =    0.0                 !
 ! R10   R(4,5)                  1.0857         -DE/DX =    0.0                 !
 ! R11   R(4,7)                  1.0838         -DE/DX =    0.0                 !
 ! A1    A(2,1,6)              110.9695         -DE/DX =    0.0                 !
 ! A2    A(2,1,10)             110.9368         -DE/DX =    0.0                 !
 ! A3    A(2,1,11)             109.1932         -DE/DX =    0.0                 !
 ! A4    A(6,1,10)             108.5446         -DE/DX =    0.0                 !
 ! A5    A(6,1,11)             108.6844         -DE/DX =    0.0                 !
 ! A6    A(10,1,11)            108.4481         -DE/DX =    0.0                 !
 ! A7    A(1,2,3)              113.7082         -DE/DX =    0.0                 !
 ! A8    A(1,2,9)              111.0318         -DE/DX =    0.0                 !
 ! A9    A(1,2,12)             108.6371         -DE/DX =    0.0                 !
 ! A10   A(3,2,9)              110.4879         -DE/DX =    0.0                 !
 ! A11   A(3,2,12)             108.5439         -DE/DX =    0.0                 !
 ! A12   A(9,2,12)             103.9225         -DE/DX =    0.0                 !
 ! A13   A(2,3,4)              123.8333         -DE/DX =    0.0                 !
 ! A14   A(2,3,8)              115.7181         -DE/DX =    0.0                 !
 ! A15   A(4,3,8)              120.4395         -DE/DX =    0.0                 !
 ! A16   A(3,4,5)              121.6831         -DE/DX =    0.0                 !
 ! A17   A(3,4,7)              121.4604         -DE/DX =    0.0                 !
 ! A18   A(5,4,7)              116.8563         -DE/DX =    0.0                 !
 ! D1    D(6,1,2,3)            178.0991         -DE/DX =    0.0                 !
 ! D2    D(6,1,2,9)            -56.5625         -DE/DX =    0.0                 !
 ! D3    D(6,1,2,12)            57.1236         -DE/DX =    0.0                 !
 ! D4    D(10,1,2,3)            57.3479         -DE/DX =    0.0                 !
 ! D5    D(10,1,2,9)          -177.3136         -DE/DX =    0.0                 !
 ! D6    D(10,1,2,12)          -63.6276         -DE/DX =    0.0                 !
 ! D7    D(11,1,2,3)           -62.1203         -DE/DX =    0.0                 !
 ! D8    D(11,1,2,9)            63.2181         -DE/DX =    0.0                 !
 ! D9    D(11,1,2,12)          176.9042         -DE/DX =    0.0                 !
 ! D10   D(1,2,3,4)            123.1976         -DE/DX =    0.0                 !
 ! D11   D(1,2,3,8)            -55.7069         -DE/DX =    0.0                 !
 ! D12   D(9,2,3,4)             -2.43           -DE/DX =    0.0                 !
 ! D13   D(9,2,3,8)            178.6655         -DE/DX =    0.0                 !
 ! D14   D(12,2,3,4)          -115.7747         -DE/DX =    0.0                 !
 ! D15   D(12,2,3,8)            65.3208         -DE/DX =    0.0                 !
 ! D16   D(2,3,4,5)              1.8221         -DE/DX =    0.0                 !
 ! D17   D(2,3,4,7)           -178.319          -DE/DX =    0.0                 !
 ! D18   D(8,3,4,5)           -179.3227         -DE/DX =    0.0                 !
 ! D19   D(8,3,4,7)              0.5362         -DE/DX =    0.0                 !
 --------------------------------------------------------------------------------
 GradGradGradGradGradGradGradGradGradGradGradGradGradGradGradGradGradGrad

 Leave Link  103 at Wed Jul 10 14:33:47 2013, MaxMem=  262144000 cpu:       0.0
 (Enter /cerebro/home/software/apps/g09/l9999.exe)
 1\1\GINC-COMPUTE-0-120\Freq\RB3LYP\6-311++G(d,p)\C4H7Cl1\CRAWDAD\10-Ju
 l-2013\0\\#P Geom=AllCheck Guess=TCheck SCRF=Check GenChk RB3LYP/6-311
 ++G(d,p) Freq\\3-chloro-1-butene tau = 120\\0,1\C,-0.0570408922,0.2370
 27609,-1.7985728744\C,-0.1452795841,0.357079363,-0.2834337285\C,1.1814
 353937,0.3052885316,0.4015402926\C,1.6363755617,1.2604620315,1.2084063
 799\H,1.0434176486,2.1391689059,1.442823827\H,-1.0506059798,0.24645010
 44,-2.2495640671\H,2.6172875428,1.1957749553,1.6646366185\H,1.78821100
 25,-0.5717385266,0.1891785339\H,-0.689357294,1.255299062,0.0065889413\
 H,0.4471355398,-0.6876267507,-2.0881337351\H,0.5153373349,1.0819240898
 ,-2.1936893212\Cl,-1.1955162348,-1.0278688792,0.3603271978\\Version=EM
 64L-G09RevA.02\State=1-A\HF=-616.8957651\RMSD=3.142e-13\RMSF=3.621e-07
 \ZeroPoint=0.0991157\Thermal=0.1052475\Dipole=0.5403005,0.6539553,-0.3
 58501\DipoleDeriv=-0.0210777,-0.0927534,-0.0196969,-0.0725315,0.034097
 2,0.0542835,0.0121632,0.0055343,-0.0608395,0.5927936,0.4440597,-0.0612
 109,0.4374209,0.5430364,-0.2154949,-0.1597441,-0.202634,0.4197787,0.04
 0554,-0.0378086,0.1187402,-0.0995136,0.000256,0.1555994,0.0841353,0.13
 74764,-0.1948938,-0.0493876,-0.1804809,0.0432933,-0.1479997,-0.0511564
 ,0.0701341,0.05129,0.0657481,-0.1788013,0.0064363,0.1121194,0.0016621,
 0.0609352,-0.0061321,-0.0561257,-0.0239257,-0.0252702,0.1052338,-0.075
 9905,0.0071909,-0.0923348,0.0026097,0.0800516,-0.0237475,-0.0584261,-0
 .0192641,-0.0023149,-0.0352254,0.0147703,-0.0945831,0.0446657,0.081856
 1,-0.0314425,-0.0966077,-0.0591878,0.0916657,0.020194,0.0498604,-0.027
 9604,0.0813245,-0.0127982,-0.0591732,-0.0195998,-0.0765051,0.0870828,-
 0.0172608,-0.0236777,0.0194315,0.0146624,-0.1058572,0.0041194,0.036884
 3,-0.0200848,-0.012686,0.0368891,0.0786215,0.0283223,0.0817193,-0.0493
 299,-0.0618697,0.0002498,0.0104546,0.0449029,0.0271116,-0.0839991,0.05
 26764,-0.0809227,-0.038886,0.0575974,0.0550985,0.0603915,0.0052839,-0.
 5250365,-0.2879025,0.0316604,-0.3223702,-0.4751376,0.1061198,0.1184822
 ,0.1233411,-0.3044124\Polar=65.4183126,12.8765224,64.4245285,5.2470536
 ,4.8043554,62.2314442\PG=C01 [X(C4H7Cl1)]\NImag=0\\0.57509833,-0.00194
 306,0.56869091,0.01589452,0.00165868,0.46112052,-0.07551142,0.01190225
 ,0.00519774,0.44131797,0.01153558,-0.07385956,-0.01908305,-0.13713848,
 0.44969885,0.00074744,-0.01952410,-0.18750246,0.02863348,0.08198094,0.
 43241616,0.00388424,-0.00096213,-0.00793445,-0.18578396,0.02812747,-0.
 05785531,0.50619174,-0.00357991,0.00197154,-0.00364430,0.02494089,-0.0
 7986546,-0.00672869,-0.04129219,0.65621556,-0.03267942,0.00055416,-0.0
 2105032,-0.05212377,0.00017083,-0.10372265,0.16297262,0.28160560,0.412
 83087,-0.00395531,0.00026722,0.00046731,-0.01008056,-0.02075692,-0.023
 82745,-0.15128624,-0.09519779,-0.10751150,0.58126803,0.00090353,-0.000
 12967,0.00196131,-0.00603654,0.00085639,-0.00197285,-0.09224130,-0.327
 81444,-0.21520475,-0.04563047,0.61965830,-0.00121275,-0.00014608,0.000
 41774,-0.01337038,-0.01330023,-0.00881293,-0.10598477,-0.21588593,-0.2
 3277136,0.20973582,0.28527662,0.38755341,0.00042628,0.00011404,-0.0000
 2866,0.00021585,-0.00286823,0.00214198,0.00886963,-0.00845363,-0.00405
 041,-0.13922163,0.12889723,0.02612277,0.13791374,0.00026680,0.00039724
 ,0.00008988,0.00027130,-0.00058675,0.00433488,0.01516703,-0.01591910,-
 0.00583133,0.12519052,-0.22913122,-0.05455719,-0.13827913,0.24277709,-
 0.00085852,-0.00024607,-0.00017398,0.00367617,0.00159662,-0.00417547,0
 .01036249,-0.01730646,0.00118109,0.02443584,-0.05276850,-0.05574578,-0
 .02610789,0.06357861,0.04901730,-0.27120404,0.00361300,-0.09981388,0.0
 0294251,-0.00096553,0.00343761,0.00020642,-0.00062099,-0.00006610,0.00
 047040,0.00050249,0.00002835,-0.00005183,-0.00007279,0.00006318,0.2918
 2508,0.00280239,-0.04729434,0.00003862,-0.00294285,-0.00139078,-0.0001
 6685,0.00048613,0.00067410,-0.00047918,-0.00001224,0.00037698,0.000016
 00,0.00004982,0.00007378,-0.00009237,-0.00274686,0.04620213,-0.0957025
 6,0.00113644,-0.08862047,-0.03222994,0.00156343,-0.01559790,0.00279562
 ,-0.00146318,-0.00605273,-0.00146197,0.00041024,-0.00038599,0.00019007
 ,0.00012848,-0.00030398,0.10719859,-0.00039651,0.09952084,-0.00124426,
 -0.00034298,-0.00010715,0.00254735,0.00087456,-0.00487706,-0.00568967,
 0.00344341,-0.00239870,-0.28523982,0.02085506,-0.11345557,-0.00960526,
 -0.00097320,-0.00675286,0.00003335,-0.00004074,-0.00041806,0.29806636,
 -0.00183013,0.00005488,-0.00031365,0.00197932,-0.00025022,-0.00685990,
 -0.02248043,0.00452168,-0.01051959,0.02522781,-0.05311314,0.00204826,0
 .02034845,0.00135841,0.00958656,0.00004508,-0.00007347,-0.00062956,-0.
 02236432,0.04736664,0.00132687,0.00040002,0.00041560,-0.00217406,-0.00
 574085,0.00690363,-0.01947576,0.00133077,-0.00529706,-0.11114893,0.000
 51538,-0.09133037,0.00612544,-0.00111813,0.00502850,-0.00002596,0.0001
 0886,0.00037701,0.12502980,0.00301490,0.08859792,0.00058863,-0.0001658
 7,0.00120555,-0.01534866,0.02401077,0.00467120,-0.13814120,0.12587567,
 0.02525015,0.00973094,-0.01005463,-0.00453582,0.00180859,0.00010258,-0
 .00502179,0.00017575,-0.00031469,-0.00006934,-0.00036996,-0.00158812,0
 .00284470,0.14345609,-0.00032023,0.00030182,-0.00012999,-0.00135589,-0
 .00044690,-0.00160592,0.12527709,-0.22735377,-0.04769576,0.01465767,-0
 .01491515,-0.00538642,0.00015119,0.00085937,-0.00588879,-0.00013253,0.
 00007874,0.00016356,-0.00179675,-0.00076305,0.00299570,-0.13719544,0.2
 3962416,0.00033950,0.00077988,0.00169624,-0.00898787,0.01162262,0.0040
 8011,0.02313750,-0.04724631,-0.05669791,0.01057691,-0.01829329,0.00072
 193,-0.00462704,-0.00635211,0.00516615,0.00025521,-0.00017974,0.000090
 16,0.00256389,0.00330266,-0.00422672,-0.02083025,0.05758263,0.04998329
 ,0.00048741,0.00106931,0.00023110,-0.11547008,0.11524294,0.03279710,-0
 .01605182,0.02579131,0.00656171,0.00115216,0.00065419,0.00136053,0.000
 24178,-0.00112096,-0.00062179,0.00051618,-0.00056959,0.00032853,0.0004
 1830,-0.00032117,0.00000088,-0.00380370,-0.00016322,-0.00285215,0.1303
 0896,0.00112244,0.00095008,-0.00057074,0.11887110,-0.22733195,-0.06283
 502,0.00210407,-0.00052753,-0.00128514,-0.00174248,0.00078412,0.000067
 56,0.00034994,0.00055373,0.00022218,-0.00024335,-0.00001531,-0.0000714
 2,-0.00023298,0.00016118,0.00017140,-0.00009294,0.00118430,-0.00046843
 ,-0.11858668,0.24369445,0.01616292,-0.02772611,-0.00981245,0.03439440,
 -0.06255309,-0.06748750,-0.00949070,0.01245951,0.00408900,0.00002834,0
 .00135910,0.00029830,0.00020774,-0.00048701,0.00001181,-0.00057178,0.0
 0013938,0.00118580,0.00023856,0.00001871,0.00004334,-0.00291982,-0.000
 28469,-0.00042761,-0.03830109,0.06343088,0.07672632,-0.10395440,0.1038
 8679,0.02987552,-0.00194487,0.00138461,0.00197287,0.00040797,-0.001304
 63,-0.00032974,0.00001509,-0.00002220,0.00001286,-0.00008450,0.0000301
 4,-0.00004040,-0.01245832,0.02513555,0.00827844,0.00001408,0.00002211,
 -0.00000535,0.00030948,0.00014903,-0.00001714,0.00096186,0.00000684,0.
 00020340,0.10824688,0.10455268,-0.23746692,-0.05791417,0.00002950,-0.0
 0297609,-0.00001462,0.00021971,0.00020021,0.00038165,-0.00032858,0.000
 22660,-0.00001052,0.00009693,0.00008924,0.00002755,-0.00078901,0.00055
 988,0.00088436,-0.00004580,-0.00004664,-0.00000282,-0.00047880,0.00013
 722,-0.00040010,-0.00034166,0.00143669,-0.00002182,-0.11458655,0.25569
 425,0.02931723,-0.05446146,-0.06309715,0.01716764,-0.03084351,-0.01121
 230,0.00144682,-0.00040764,0.00174353,-0.00026559,0.00013789,-0.000085
 01,0.00003917,0.00025120,0.00000318,-0.00520386,0.01201079,0.00330039,
 -0.00008225,0.00004949,0.00003730,-0.00077894,0.00040412,-0.00022136,-
 0.00014016,0.00020317,-0.00634755,-0.03390595,0.06328767,0.07133925,-0
 .11754467,-0.10526784,0.04762152,-0.00276219,-0.00155554,0.00090901,-0
 .00019606,0.00019655,-0.00080073,0.00020362,0.00018939,0.00015134,0.00
 000791,0.00002222,-0.00000638,-0.01361880,-0.02243376,0.01119002,-0.00
 000050,0.00002677,0.00001903,0.00002135,0.00008502,0.00002009,0.000118
 88,0.00031841,0.00008954,0.00843369,0.01162751,-0.00659519,0.12420749,
 -0.10483641,-0.20256676,0.07015865,0.00131747,0.00030486,-0.00018572,-
 0.00035968,0.00014956,-0.00056530,0.00035552,0.00044499,0.00012953,-0.
 00001317,-0.00005271,0.00004725,0.00094386,0.00078606,-0.00130895,0.00
 005384,0.00003814,0.00000411,-0.00003241,-0.00011159,0.00010816,0.0000
 8601,0.00037132,0.00057826,-0.01481541,-0.01947632,0.00969305,0.116685
 18,0.21791816,0.04706378,0.06947019,-0.07970805,0.01501543,0.02446023,
 -0.01085243,0.00047013,0.00036883,0.00112092,-0.00034350,-0.00046839,0
 .00018676,0.00003679,-0.00004525,-0.00003660,-0.00581780,-0.01119792,0
 .00494459,0.00008337,0.00005914,-0.00021204,0.00000484,0.00008872,-0.0
 0018871,0.00015244,-0.00068415,0.00112121,-0.00561583,-0.00625519,0.00
 280241,-0.05336652,-0.07807349,0.08668478,-0.00707077,-0.01217076,0.00
 739088,-0.04012193,-0.01789123,0.01124913,-0.02241106,-0.02979868,0.00
 517589,-0.00305668,0.00198326,0.00114762,-0.00052056,-0.00060452,0.000
 87193,0.00116332,0.00058684,-0.00009939,0.00107004,0.00093462,-0.00251
 666,0.00157269,0.00064407,0.00042135,0.00112007,-0.00187437,-0.0000414
 9,0.00005305,0.00004409,-0.00099893,0.00112928,0.00061520,0.00231687,0
 .06707255,-0.00867368,-0.01104921,0.00774875,-0.01183806,-0.06415238,0
 .01357785,-0.01404576,-0.01225234,-0.00113117,-0.00203024,0.00275624,0
 .00174840,-0.00039345,-0.00041907,0.00124340,0.00046664,0.00002221,-0.
 00041688,0.00056989,0.00074558,-0.00167933,-0.00006612,0.00140485,-0.0
 0045596,-0.02174048,-0.02126106,0.01308688,0.00011371,0.00162189,-0.00
 032476,0.00010608,0.00219428,0.00227730,0.05753148,0.10038899,0.019600
 99,0.02810446,-0.01368521,0.00480115,0.01012607,-0.03403627,-0.0004441
 9,-0.00308218,0.00462662,-0.00068527,-0.00095275,-0.00004670,-0.000049
 96,0.00000797,0.00002779,0.00051644,0.00019892,0.00154228,0.00017602,0
 .00024298,-0.00033713,0.00017952,-0.00024316,0.00002443,0.00048291,0.0
 0181973,0.00059934,-0.00042868,0.00003801,0.00173731,0.00076826,-0.000
 58556,-0.00586284,-0.02491720,-0.03567449,0.04541037\\0.00000031,0.000
 00051,-0.00000004,-0.00000022,-0.00000028,-0.00000012,-0.00000010,-0.0
 0000019,-0.00000002,-0.00000025,-0.00000027,0.00000056,-0.00000041,-0.
 00000049,0.00000057,0.00000036,0.00000049,-0.00000036,-0.00000039,-0.0
 0000050,0.00000057,0.,-0.00000005,-0.00000011,-0.00000006,-0.00000013,
 0.,0.00000039,0.00000054,-0.00000041,0.00000029,0.00000056,0.00000016,
 0.00000008,-0.00000018,-0.00000081\\\@


 KNOWLEDGE IS CHIMERA - FOR BEYOND IT LIES OTHER KNOWLEDGE,
 AND THE INCOMPLETENESS OF WHAT IS KNOWN RENDERS THE KNOWING FALSE.
     -- THE THOMAS COVENANT CHRONICLES
 Job cpu time:  0 days  0 hours 22 minutes 30.7 seconds.
 File lengths (MBytes):  RWF=     41 Int=      0 D2E=      0 Chk=      3 Scr=      1
 Normal termination of Gaussian 09 at Wed Jul 10 14:33:47 2013.
