(R)-3-chloro-1-butene tau=120                                           
SP        RB3LYP                                                      6-311++G(d,p)       
Number of atoms                            I               12
Info1-9                                    I   N=           9
          26          26           0           0           0         110
           1          18        -502
Full Title                                 C   N=           3
(R)-3-chloro-1-butene tau=120       
Route                                      C   N=           7
#P B3LYP/6-311++G** scf(conver=11) int=ultrafine polar=optro
t cphf(rdfreq,conver=11)
Charge                                     I                0
Multiplicity                               I                1
Number of electrons                        I               48
Number of alpha electrons                  I               24
Number of beta electrons                   I               24
Number of basis functions                  I              167
Number of independent functions            I              167
Number of point charges in /Mol/           I                0
Number of translation vectors              I                0
Atomic numbers                             I   N=          12
           6           6           6           6           1           1
           1           1           1           1           1          17
Nuclear charges                            R   N=          12
  6.00000000E+00  6.00000000E+00  6.00000000E+00  6.00000000E+00  1.00000000E+00
  1.00000000E+00  1.00000000E+00  1.00000000E+00  1.00000000E+00  1.00000000E+00
  1.00000000E+00  1.70000000E+01
Current cartesian coordinates              R   N=          36
  9.41681855E-01  3.33625082E+00  6.52838517E-02  5.17529699E-02  6.39756996E-01
 -6.46638320E-01 -2.30513124E+00 -1.66305553E-01  8.31738670E-01 -4.44202476E+00
 -9.04039468E-01 -2.92082561E-01 -4.50960072E+00 -9.73173495E-01 -2.34635422E+00
  2.67397514E+00  3.93298247E+00 -8.90734108E-01 -6.14976532E+00 -1.46544840E+00
  6.98340951E-01 -2.12968988E+00 -9.88751300E-02  2.87934157E+00 -2.69068455E-01
  4.29718851E-01 -2.67052646E+00  1.26740680E+00  3.39643508E+00  2.10688590E+00
 -5.70289352E-01  4.68126231E+00 -3.65459087E-01  2.60055052E+00 -1.60805167E+00
  4.93350362E-02
Number of symbols in /Mol/                 I                0
Force Field                                I                0
Atom Types                                 C   N=          12
                                                            
                                                            
                        
Int Atom Types                             I   N=          12
           0           0           0           0           0           0
           0           0           0           0           0           0
MM charges                                 R   N=          12
  0.00000000E+00  0.00000000E+00  0.00000000E+00  0.00000000E+00  0.00000000E+00
  0.00000000E+00  0.00000000E+00  0.00000000E+00  0.00000000E+00  0.00000000E+00
  0.00000000E+00  0.00000000E+00
Integer atomic weights                     I   N=          12
          12          12          12          12           1           1
           1           1           1           1           1          35
Real atomic weights                        R   N=          12
  1.20000000E+01  1.20000000E+01  1.20000000E+01  1.20000000E+01  1.00782504E+00
  1.00782504E+00  1.00782504E+00  1.00782504E+00  1.00782504E+00  1.00782504E+00
  1.00782504E+00  3.49688527E+01
Atom fragment info                         I   N=          12
           0           0           0           0           0           0
           0           0           0           0           0           0
Atom residue num                           I   N=          12
           0           0           0           0           0           0
           0           0           0           0           0           0
Nuclear spins                              I   N=          12
           0           0           0           0           1           1
           1           1           1           1           1           3
Nuclear ZEff                               R   N=          12
 -3.60000000E+00 -3.60000000E+00 -3.60000000E+00 -3.60000000E+00 -1.00000000E+00
 -1.00000000E+00 -1.00000000E+00 -1.00000000E+00 -1.00000000E+00 -1.00000000E+00
 -1.00000000E+00 -1.42400000E+01
Nuclear ZNuc                               R   N=          12
  6.00000000E+00  6.00000000E+00  6.00000000E+00  6.00000000E+00  1.00000000E+00
  1.00000000E+00  1.00000000E+00  1.00000000E+00  1.00000000E+00  1.00000000E+00
  1.00000000E+00  1.70000000E+01
Nuclear QMom                               R   N=          12
  0.00000000E+00  0.00000000E+00  0.00000000E+00  0.00000000E+00  0.00000000E+00
  0.00000000E+00  0.00000000E+00  0.00000000E+00  0.00000000E+00  0.00000000E+00
  0.00000000E+00 -8.16500000E+00
Nuclear GFac                               R   N=          12
  0.00000000E+00  0.00000000E+00  0.00000000E+00  0.00000000E+00  2.79284600E+00
  2.79284600E+00  2.79284600E+00  2.79284600E+00  2.79284600E+00  2.79284600E+00
  2.79284600E+00  8.21874000E-01
MicOpt                                     I   N=          12
          -1          -1          -1          -1          -1          -1
          -1          -1          -1          -1          -1          -1
Number of residues                         I                0
Number of secondary structures             I                0
SymInf integers                            I   N=          26
           1           1           1           1           1           0
           0           0           0           0           0           0
           0           0           0           0           0           0
           0           0           0           0           0           0
           0           0
RotTr to input orientation                 R   N=          12
  9.99945057E-01  1.03033209E-02 -1.92985898E-03 -1.03011806E-02  9.99946319E-01
  1.11572732E-03  1.94125108E-03 -1.09578619E-03  9.99997515E-01  4.02952602E-05
  1.68218302E-04  2.63521128E-04
Number of contracted shells                I               72
Number of primitive shells                 I              126
Pure/Cartesian d shells                    I                0
Pure/Cartesian f shells                    I                0
Highest angular momentum                   I                2
Largest degree of contraction              I                6
Shell types                                I   N=          72
           0          -1          -1          -1          -1          -2
           0          -1          -1          -1          -1          -2
           0          -1          -1          -1          -1          -2
           0          -1          -1          -1          -1          -2
           0           0           0           0           1           0
           0           0           0           1           0           0
           0           0           1           0           0           0
           0           1           0           0           0           0
           1           0           0           0           0           1
           0           0           0           0           1           0
           0           0           0           0           0          -1
           1           1           1           1           1          -2
Number of primitives per shell             I   N=          72
           6           3           1           1           1           1
           6           3           1           1           1           1
           6           3           1           1           1           1
           6           3           1           1           1           1
           3           1           1           1           1           3
           1           1           1           1           3           1
           1           1           1           3           1           1
           1           1           3           1           1           1
           1           3           1           1           1           1
           3           1           1           1           1           6
           3           1           1           1           1           1
           5           2           1           1           1           1
Shell to atom map                          I   N=          72
           1           1           1           1           1           1
           2           2           2           2           2           2
           3           3           3           3           3           3
           4           4           4           4           4           4
           5           5           5           5           5           6
           6           6           6           6           7           7
           7           7           7           8           8           8
           8           8           9           9           9           9
           9          10          10          10          10          10
          11          11          11          11          11          12
          12          12          12          12          12          12
          12          12          12          12          12          12
Primitive exponents                        R   N=         126
  4.56324000E+03  6.82024000E+02  1.54973000E+02  4.44553000E+01  1.30290000E+01
  1.82773000E+00  2.09642000E+01  4.80331000E+00  1.45933000E+00  4.83456000E-01
  1.45585000E-01  4.38000000E-02  6.26000000E-01  4.56324000E+03  6.82024000E+02
  1.54973000E+02  4.44553000E+01  1.30290000E+01  1.82773000E+00  2.09642000E+01
  4.80331000E+00  1.45933000E+00  4.83456000E-01  1.45585000E-01  4.38000000E-02
  6.26000000E-01  4.56324000E+03  6.82024000E+02  1.54973000E+02  4.44553000E+01
  1.30290000E+01  1.82773000E+00  2.09642000E+01  4.80331000E+00  1.45933000E+00
  4.83456000E-01  1.45585000E-01  4.38000000E-02  6.26000000E-01  4.56324000E+03
  6.82024000E+02  1.54973000E+02  4.44553000E+01  1.30290000E+01  1.82773000E+00
  2.09642000E+01  4.80331000E+00  1.45933000E+00  4.83456000E-01  1.45585000E-01
  4.38000000E-02  6.26000000E-01  3.38650000E+01  5.09479000E+00  1.15879000E+00
  3.25840000E-01  1.02741000E-01  3.60000000E-02  7.50000000E-01  3.38650000E+01
  5.09479000E+00  1.15879000E+00  3.25840000E-01  1.02741000E-01  3.60000000E-02
  7.50000000E-01  3.38650000E+01  5.09479000E+00  1.15879000E+00  3.25840000E-01
  1.02741000E-01  3.60000000E-02  7.50000000E-01  3.38650000E+01  5.09479000E+00
  1.15879000E+00  3.25840000E-01  1.02741000E-01  3.60000000E-02  7.50000000E-01
  3.38650000E+01  5.09479000E+00  1.15879000E+00  3.25840000E-01  1.02741000E-01
  3.60000000E-02  7.50000000E-01  3.38650000E+01  5.09479000E+00  1.15879000E+00
  3.25840000E-01  1.02741000E-01  3.60000000E-02  7.50000000E-01  3.38650000E+01
  5.09479000E+00  1.15879000E+00  3.25840000E-01  1.02741000E-01  3.60000000E-02
  7.50000000E-01  1.05819000E+05  1.58720000E+04  3.61965000E+03  1.03080000E+03
  3.39908000E+02  1.24538000E+02  1.24538000E+02  4.95135000E+01  2.08056000E+01
  6.58346000E+00  2.56468000E+00  5.59763000E-01  1.83273000E-01  4.83000000E-02
  5.89776000E+02  1.39849000E+02  4.51413000E+01  1.68733000E+01  2.77152000E+00
  6.74110000E+00  2.77152000E+00  1.02387000E+00  3.81368000E-01  1.09437000E-01
  7.50000000E-01
Contraction coefficients                   R   N=         126
  1.96665025E-03  1.52306019E-02  7.61269097E-02  2.60801033E-01  6.16462078E-01
  2.21006028E-01  1.14660081E-01  9.19999648E-01 -3.03068213E-03  1.00000000E+00
  1.00000000E+00  1.00000000E+00  1.00000000E+00  1.96665025E-03  1.52306019E-02
  7.61269097E-02  2.60801033E-01  6.16462078E-01  2.21006028E-01  1.14660081E-01
  9.19999648E-01 -3.03068213E-03  1.00000000E+00  1.00000000E+00  1.00000000E+00
  1.00000000E+00  1.96665025E-03  1.52306019E-02  7.61269097E-02  2.60801033E-01
  6.16462078E-01  2.21006028E-01  1.14660081E-01  9.19999648E-01 -3.03068213E-03
  1.00000000E+00  1.00000000E+00  1.00000000E+00  1.00000000E+00  1.96665025E-03
  1.52306019E-02  7.61269097E-02  2.60801033E-01  6.16462078E-01  2.21006028E-01
  1.14660081E-01  9.19999648E-01 -3.03068213E-03  1.00000000E+00  1.00000000E+00
  1.00000000E+00  1.00000000E+00  2.54938145E-02  1.90373109E-01  8.52161486E-01
  1.00000000E+00  1.00000000E+00  1.00000000E+00  1.00000000E+00  2.54938145E-02
  1.90373109E-01  8.52161486E-01  1.00000000E+00  1.00000000E+00  1.00000000E+00
  1.00000000E+00  2.54938145E-02  1.90373109E-01  8.52161486E-01  1.00000000E+00
  1.00000000E+00  1.00000000E+00  1.00000000E+00  2.54938145E-02  1.90373109E-01
  8.52161486E-01  1.00000000E+00  1.00000000E+00  1.00000000E+00  1.00000000E+00
  2.54938145E-02  1.90373109E-01  8.52161486E-01  1.00000000E+00  1.00000000E+00
  1.00000000E+00  1.00000000E+00  2.54938145E-02  1.90373109E-01  8.52161486E-01
  1.00000000E+00  1.00000000E+00  1.00000000E+00  1.00000000E+00  2.54938145E-02
  1.90373109E-01  8.52161486E-01  1.00000000E+00  1.00000000E+00  1.00000000E+00
  1.00000000E+00  7.38000247E-04  5.71800191E-03  2.94950099E-02  1.17286039E-01
  3.62949121E-01  5.84149195E-01  1.34176973E-01  6.24249876E-01  2.91755942E-01
  1.00000000E+00  1.00000000E+00  1.00000000E+00  1.00000000E+00  1.00000000E+00
  3.66556935E-03  2.83679194E-02  1.24756603E-01  3.39654631E-01  7.47585963E-01
 -1.57224381E+00  9.92388882E-01  1.00000000E+00  1.00000000E+00  1.00000000E+00
  1.00000000E+00
P(S=P) Contraction coefficients            R   N=         126
  0.00000000E+00  0.00000000E+00  0.00000000E+00  0.00000000E+00  0.00000000E+00
  0.00000000E+00  4.02486927E-02  2.37593957E-01  8.15853851E-01  1.00000000E+00
  1.00000000E+00  1.00000000E+00  0.00000000E+00  0.00000000E+00  0.00000000E+00
  0.00000000E+00  0.00000000E+00  0.00000000E+00  0.00000000E+00  4.02486927E-02
  2.37593957E-01  8.15853851E-01  1.00000000E+00  1.00000000E+00  1.00000000E+00
  0.00000000E+00  0.00000000E+00  0.00000000E+00  0.00000000E+00  0.00000000E+00
  0.00000000E+00  0.00000000E+00  4.02486927E-02  2.37593957E-01  8.15853851E-01
  1.00000000E+00  1.00000000E+00  1.00000000E+00  0.00000000E+00  0.00000000E+00
  0.00000000E+00  0.00000000E+00  0.00000000E+00  0.00000000E+00  0.00000000E+00
  4.02486927E-02  2.37593957E-01  8.15853851E-01  1.00000000E+00  1.00000000E+00
  1.00000000E+00  0.00000000E+00  0.00000000E+00  0.00000000E+00  0.00000000E+00
  0.00000000E+00  0.00000000E+00  0.00000000E+00  0.00000000E+00  0.00000000E+00
  0.00000000E+00  0.00000000E+00  0.00000000E+00  0.00000000E+00  0.00000000E+00
  0.00000000E+00  0.00000000E+00  0.00000000E+00  0.00000000E+00  0.00000000E+00
  0.00000000E+00  0.00000000E+00  0.00000000E+00  0.00000000E+00  0.00000000E+00
  0.00000000E+00  0.00000000E+00  0.00000000E+00  0.00000000E+00  0.00000000E+00
  0.00000000E+00  0.00000000E+00  0.00000000E+00  0.00000000E+00  0.00000000E+00
  0.00000000E+00  0.00000000E+00  0.00000000E+00  0.00000000E+00  0.00000000E+00
  0.00000000E+00  0.00000000E+00  0.00000000E+00  0.00000000E+00  0.00000000E+00
  0.00000000E+00  0.00000000E+00  0.00000000E+00  0.00000000E+00  0.00000000E+00
  0.00000000E+00  0.00000000E+00  0.00000000E+00  0.00000000E+00  0.00000000E+00
  0.00000000E+00  0.00000000E+00  0.00000000E+00  0.00000000E+00  0.00000000E+00
  0.00000000E+00  0.00000000E+00  0.00000000E+00  0.00000000E+00  1.00000000E+00
  0.00000000E+00  0.00000000E+00  0.00000000E+00  0.00000000E+00  0.00000000E+00
  0.00000000E+00  0.00000000E+00  0.00000000E+00  0.00000000E+00  0.00000000E+00
  0.00000000E+00
Coordinates of each shell                  R   N=         216
  9.41681855E-01  3.33625082E+00  6.52838517E-02  9.41681855E-01  3.33625082E+00
  6.52838517E-02  9.41681855E-01  3.33625082E+00  6.52838517E-02  9.41681855E-01
  3.33625082E+00  6.52838517E-02  9.41681855E-01  3.33625082E+00  6.52838517E-02
  9.41681855E-01  3.33625082E+00  6.52838517E-02  5.17529699E-02  6.39756996E-01
 -6.46638320E-01  5.17529699E-02  6.39756996E-01 -6.46638320E-01  5.17529699E-02
  6.39756996E-01 -6.46638320E-01  5.17529699E-02  6.39756996E-01 -6.46638320E-01
  5.17529699E-02  6.39756996E-01 -6.46638320E-01  5.17529699E-02  6.39756996E-01
 -6.46638320E-01 -2.30513124E+00 -1.66305553E-01  8.31738670E-01 -2.30513124E+00
 -1.66305553E-01  8.31738670E-01 -2.30513124E+00 -1.66305553E-01  8.31738670E-01
 -2.30513124E+00 -1.66305553E-01  8.31738670E-01 -2.30513124E+00 -1.66305553E-01
  8.31738670E-01 -2.30513124E+00 -1.66305553E-01  8.31738670E-01 -4.44202476E+00
 -9.04039468E-01 -2.92082561E-01 -4.44202476E+00 -9.04039468E-01 -2.92082561E-01
 -4.44202476E+00 -9.04039468E-01 -2.92082561E-01 -4.44202476E+00 -9.04039468E-01
 -2.92082561E-01 -4.44202476E+00 -9.04039468E-01 -2.92082561E-01 -4.44202476E+00
 -9.04039468E-01 -2.92082561E-01 -4.50960072E+00 -9.73173495E-01 -2.34635422E+00
 -4.50960072E+00 -9.73173495E-01 -2.34635422E+00 -4.50960072E+00 -9.73173495E-01
 -2.34635422E+00 -4.50960072E+00 -9.73173495E-01 -2.34635422E+00 -4.50960072E+00
 -9.73173495E-01 -2.34635422E+00  2.67397514E+00  3.93298247E+00 -8.90734108E-01
  2.67397514E+00  3.93298247E+00 -8.90734108E-01  2.67397514E+00  3.93298247E+00
 -8.90734108E-01  2.67397514E+00  3.93298247E+00 -8.90734108E-01  2.67397514E+00
  3.93298247E+00 -8.90734108E-01 -6.14976532E+00 -1.46544840E+00  6.98340951E-01
 -6.14976532E+00 -1.46544840E+00  6.98340951E-01 -6.14976532E+00 -1.46544840E+00
  6.98340951E-01 -6.14976532E+00 -1.46544840E+00  6.98340951E-01 -6.14976532E+00
 -1.46544840E+00  6.98340951E-01 -2.12968988E+00 -9.88751300E-02  2.87934157E+00
 -2.12968988E+00 -9.88751300E-02  2.87934157E+00 -2.12968988E+00 -9.88751300E-02
  2.87934157E+00 -2.12968988E+00 -9.88751300E-02  2.87934157E+00 -2.12968988E+00
 -9.88751300E-02  2.87934157E+00 -2.69068455E-01  4.29718851E-01 -2.67052646E+00
 -2.69068455E-01  4.29718851E-01 -2.67052646E+00 -2.69068455E-01  4.29718851E-01
 -2.67052646E+00 -2.69068455E-01  4.29718851E-01 -2.67052646E+00 -2.69068455E-01
  4.29718851E-01 -2.67052646E+00  1.26740680E+00  3.39643508E+00  2.10688590E+00
  1.26740680E+00  3.39643508E+00  2.10688590E+00  1.26740680E+00  3.39643508E+00
  2.10688590E+00  1.26740680E+00  3.39643508E+00  2.10688590E+00  1.26740680E+00
  3.39643508E+00  2.10688590E+00 -5.70289352E-01  4.68126231E+00 -3.65459087E-01
 -5.70289352E-01  4.68126231E+00 -3.65459087E-01 -5.70289352E-01  4.68126231E+00
 -3.65459087E-01 -5.70289352E-01  4.68126231E+00 -3.65459087E-01 -5.70289352E-01
  4.68126231E+00 -3.65459087E-01  2.60055052E+00 -1.60805167E+00  4.93350362E-02
  2.60055052E+00 -1.60805167E+00  4.93350362E-02  2.60055052E+00 -1.60805167E+00
  4.93350362E-02  2.60055052E+00 -1.60805167E+00  4.93350362E-02  2.60055052E+00
 -1.60805167E+00  4.93350362E-02  2.60055052E+00 -1.60805167E+00  4.93350362E-02
  2.60055052E+00 -1.60805167E+00  4.93350362E-02  2.60055052E+00 -1.60805167E+00
  4.93350362E-02  2.60055052E+00 -1.60805167E+00  4.93350362E-02  2.60055052E+00
 -1.60805167E+00  4.93350362E-02  2.60055052E+00 -1.60805167E+00  4.93350362E-02
  2.60055052E+00 -1.60805167E+00  4.93350362E-02  2.60055052E+00 -1.60805167E+00
  4.93350362E-02
Constraint Structure                       R   N=          36
  9.41681855E-01  3.33625082E+00  6.52838517E-02  5.17529699E-02  6.39756996E-01
 -6.46638320E-01 -2.30513124E+00 -1.66305553E-01  8.31738670E-01 -4.44202476E+00
 -9.04039468E-01 -2.92082561E-01 -4.50960072E+00 -9.73173495E-01 -2.34635422E+00
  2.67397514E+00  3.93298247E+00 -8.90734108E-01 -6.14976532E+00 -1.46544840E+00
  6.98340951E-01 -2.12968988E+00 -9.88751300E-02  2.87934157E+00 -2.69068455E-01
  4.29718851E-01 -2.67052646E+00  1.26740680E+00  3.39643508E+00  2.10688590E+00
 -5.70289352E-01  4.68126231E+00 -3.65459087E-01  2.60055052E+00 -1.60805167E+00
  4.93350362E-02
Num ILSW                                   I              100
ILSW                                       I   N=         100
           0           0           0           0           2           0
           0           0           0           0         402          -1
           5           0           0           0           0           0
           0           0           0           0           0           0
           1           0           0           0           0           0
           0           0      100000           0          -1           0
           0           0           0           0           0           0
           0           0           0           1           0           0
           0           0           1           0           0           0
           0           0           4          41           0           0
           0           0           5           0           0           0
           0           0           0           0           0           0
           0           0           0           0           0           0
           0           0           0           0           0           0
           0           0           0           0           0           0
           0           0           0           0           0           0
           0           0           0           0
Num RLSW                                   I               41
RLSW                                       R   N=          41
  8.00000000E-01  7.20000000E-01  1.00000000E+00  8.10000000E-01  2.00000000E-01
  0.00000000E+00  0.00000000E+00  1.00000000E+00  0.00000000E+00  0.00000000E+00
  0.00000000E+00  0.00000000E+00  1.00000000E+00  0.00000000E+00  0.00000000E+00
  0.00000000E+00  0.00000000E+00  1.00000000E+00  0.00000000E+00  0.00000000E+00
  0.00000000E+00  0.00000000E+00  1.00000000E+00  0.00000000E+00  0.00000000E+00
  0.00000000E+00  0.00000000E+00  1.00000000E+00  0.00000000E+00  0.00000000E+00
  0.00000000E+00  0.00000000E+00  0.00000000E+00  0.00000000E+00  0.00000000E+00
  0.00000000E+00  0.00000000E+00  0.00000000E+00  1.00000000E+00  1.00000000E+00
  0.00000000E+00
MxBond                                     I                4
NBond                                      I   N=          12
           4           4           3           3           1           1
           1           1           1           1           1           1
IBond                                      I   N=          48
           2           6          10          11           1           3
           9          12           2           4           8           0
           3           5           7           0           4           0
           0           0           1           0           0           0
           4           0           0           0           3           0
           0           0           2           0           0           0
           1           0           0           0           1           0
           0           0           2           0           0           0
RBond                                      R   N=          48
  1.00000000E+00  1.00000000E+00  1.00000000E+00  1.00000000E+00  1.00000000E+00
  1.00000000E+00  1.00000000E+00  1.00000000E+00  1.00000000E+00  2.00000000E+00
  1.00000000E+00  0.00000000E+00  2.00000000E+00  1.00000000E+00  1.00000000E+00
  0.00000000E+00  1.00000000E+00  0.00000000E+00  0.00000000E+00  0.00000000E+00
  1.00000000E+00  0.00000000E+00  0.00000000E+00  0.00000000E+00  1.00000000E+00
  0.00000000E+00  0.00000000E+00  0.00000000E+00  1.00000000E+00  0.00000000E+00
  0.00000000E+00  0.00000000E+00  1.00000000E+00  0.00000000E+00  0.00000000E+00
  0.00000000E+00  1.00000000E+00  0.00000000E+00  0.00000000E+00  0.00000000E+00
  1.00000000E+00  0.00000000E+00  0.00000000E+00  0.00000000E+00  1.00000000E+00
  0.00000000E+00  0.00000000E+00  0.00000000E+00
Virial Ratio                               R      2.003245443044451E+00
SCF Energy                                 R     -6.168937983938205E+02
Total Energy                               R     -6.168937983938205E+02
RMS Density                                R      8.454339100374908E-12
Nuclear derivative order                   I                0
External E-field                           R   N=          35
  0.00000000E+00  0.00000000E+00  0.00000000E+00  0.00000000E+00  0.00000000E+00
  0.00000000E+00  0.00000000E+00  0.00000000E+00  0.00000000E+00  0.00000000E+00
  0.00000000E+00  0.00000000E+00  0.00000000E+00  0.00000000E+00  0.00000000E+00
  0.00000000E+00  0.00000000E+00  0.00000000E+00  0.00000000E+00  0.00000000E+00
  0.00000000E+00  0.00000000E+00  0.00000000E+00  0.00000000E+00  0.00000000E+00
  0.00000000E+00  0.00000000E+00  0.00000000E+00  0.00000000E+00  0.00000000E+00
  0.00000000E+00  0.00000000E+00  0.00000000E+00  0.00000000E+00  0.00000000E+00
IOpCl                                      I                0
IROHF                                      I                0
Alpha Orbital Energies                     R   N=         167
 -1.01535575E+02 -1.02509844E+01 -1.01973815E+01 -1.01849754E+01 -1.01831072E+01
 -9.45014107E+00 -7.21450546E+00 -7.20502298E+00 -7.20486591E+00 -8.65881728E-01
 -7.84820522E-01 -7.38131128E-01 -6.36329125E-01 -5.77868207E-01 -4.84784039E-01
 -4.70811462E-01 -4.43366516E-01 -4.16165505E-01 -4.00828129E-01 -3.77430240E-01
 -3.66792387E-01 -3.05604367E-01 -2.98619471E-01 -2.80291929E-01 -2.98023828E-02
 -7.29193974E-03  5.97179545E-03  7.93331085E-03  2.17809687E-02  2.80849399E-02
  3.78049308E-02  4.23970814E-02  6.29041559E-02  6.44513593E-02  7.33165179E-02
  8.21719243E-02  8.76151716E-02  9.93267938E-02  1.10351044E-01  1.14777863E-01
  1.18119458E-01  1.21927759E-01  1.29562832E-01  1.30884006E-01  1.35211003E-01
  1.41220862E-01  1.49734208E-01  1.54789239E-01  1.59555238E-01  1.64391617E-01
  1.72252559E-01  1.86243424E-01  1.91664895E-01  2.10600147E-01  2.17181929E-01
  2.24366382E-01  2.44836842E-01  2.52505299E-01  2.72600475E-01  2.87210511E-01
  3.39304881E-01  3.53414809E-01  3.87284183E-01  4.25558340E-01  4.27997870E-01
  4.45406100E-01  4.57746967E-01  4.78446860E-01  4.87222705E-01  4.93557775E-01
  5.22060605E-01  5.30620224E-01  5.61174245E-01  5.85077224E-01  5.95273447E-01
  6.21392145E-01  6.36538868E-01  6.47872400E-01  6.59191614E-01  6.63853568E-01
  6.88723146E-01  7.05265274E-01  7.33231686E-01  7.44886150E-01  7.88079839E-01
  8.16155502E-01  8.28825163E-01  8.63737586E-01  8.89279036E-01  9.06563321E-01
  9.40619789E-01  9.58329845E-01  1.00296594E+00  1.02931830E+00  1.06218732E+00
  1.07719149E+00  1.12169430E+00  1.18064350E+00  1.19694821E+00  1.29027268E+00
  1.38803835E+00  1.42149036E+00  1.45213527E+00  1.46609076E+00  1.50293110E+00
  1.53432990E+00  1.55857320E+00  1.57761772E+00  1.59705988E+00  1.61892758E+00
  1.65999878E+00  1.68726438E+00  1.69616231E+00  1.72536900E+00  1.75901047E+00
  1.78766400E+00  1.85956573E+00  1.87139628E+00  1.93309865E+00  1.98979939E+00
  2.01217199E+00  2.07311704E+00  2.09558821E+00  2.17420218E+00  2.18117193E+00
  2.19130853E+00  2.24848615E+00  2.29331858E+00  2.30747926E+00  2.35674659E+00
  2.36517755E+00  2.44776067E+00  2.45790472E+00  2.48303297E+00  2.52506230E+00
  2.56190649E+00  2.56274897E+00  2.58751156E+00  2.59257837E+00  2.65041366E+00
  2.72514875E+00  2.73137903E+00  2.73560980E+00  2.76683769E+00  2.84273469E+00
  2.84631962E+00  2.92531260E+00  3.03704885E+00  3.08020956E+00  3.17398212E+00
  3.36799191E+00  3.49130082E+00  3.71555861E+00  3.77947337E+00  3.78909525E+00
  3.94017943E+00  4.08942039E+00  4.25512797E+00  9.75693232E+00  2.37133588E+01
  2.37395362E+01  2.39328848E+01  2.42337815E+01  2.59284373E+01  2.59741559E+01
  2.64466456E+01  2.15746702E+02
Alpha MO coefficients                      R   N=       27889
  2.18107148E-07 -4.82244806E-07 -2.55160857E-06 -2.50205992E-06 -1.20161697E-06
  1.53048506E-06  1.88066352E-05  1.59481541E-05  9.12782930E-06  8.56103535E-06
  3.15576007E-05  3.37913892E-05  2.75920187E-05 -1.56549548E-03 -1.57613533E-04
  4.76371517E-04  4.58242451E-05  7.88131754E-06 -1.97607867E-06 -5.95601419E-06
  1.27752107E-05  8.15196725E-07  1.31848414E-06 -2.57414521E-06  1.32501907E-05
 -1.32016716E-05  6.27343126E-06 -1.64266281E-05 -1.58568309E-05  2.12158819E-05
 -2.26779327E-05  1.89469332E-04  1.26177108E-04 -1.26229530E-04  8.97622580E-06
  3.35026764E-03 -4.15703154E-04  4.71284217E-04  7.90756125E-04  1.11997634E-05
 -2.09208448E-06  4.62606411E-06 -2.34840516E-06  1.03600741E-05 -4.96362840E-07
  1.46799969E-06  4.54320117E-06 -2.39122596E-06 -4.13398153E-06 -5.59741077E-06
 -2.54790683E-05  9.23578643E-06  2.41825116E-05  1.65223009E-05 -2.86722201E-06
 -1.73594239E-05 -6.27919009E-05 -8.05427610E-04 -1.15019137E-03 -3.41884829E-04
 -1.41488381E-04  6.41836575E-06  6.93620740E-06 -5.60573083E-06  3.58753948E-07
 -4.40806880E-06  3.73638440E-07 -1.10418646E-06 -1.78256765E-06  7.32252377E-07
  7.14564672E-07  1.09274036E-05  7.37282405E-06 -2.96949717E-06  1.11217472E-06
 -6.94690010E-05 -9.70689593E-05 -2.23317714E-05  5.54582083E-05 -1.68912380E-03
 -3.58358850E-04 -1.82316074E-04 -1.24450216E-04 -4.95503675E-06 -2.12724720E-06
 -3.50950185E-06 -2.16387025E-06 -1.75853142E-06 -2.96065645E-06  3.42251729E-05
  5.94624599E-05  5.02774145E-05  6.09110931E-06 -6.67409613E-08  6.21642670E-06
  1.18720140E-05 -7.71577861E-05  7.73580338E-05  2.21257725E-04  7.92359025E-06
  1.29776214E-05 -1.05090770E-05  2.63632467E-06 -2.32782951E-05 -5.36032917E-05
 -1.31866410E-04 -1.63739883E-06 -6.17512686E-07  1.24655087E-06  5.43052953E-06
 -3.16614221E-05  6.04058007E-05  1.48846073E-04 -1.04113885E-05  2.23807532E-06
  1.30002260E-05 -2.32811236E-06 -5.93277325E-05 -1.10741395E-04  1.29905509E-04
 -5.86878866E-06  1.71322729E-06 -1.68073906E-05  9.84871472E-06 -6.31382480E-05
 -2.92024932E-05  7.03057890E-05 -4.31287297E-06  1.18324921E-05  1.53587105E-05
 -7.45338530E-06  3.59609437E-05 -1.36651323E-04 -2.99735837E-04  3.57769496E-07
 -4.59040460E-06 -1.17410961E-06  4.11609611E-01  6.54076033E-01  1.50046377E-02