(R)-3-chloro-1-butene tau=120                                           
SP        RB3LYP                                                      6-311++G(d,p)       
Number of atoms                            I               12
Info1-9                                    I   N=           9
          26          26           0           0           0         110
           1          18        -502
Full Title                                 C   N=           3
(R)-3-chloro-1-butene tau=120       
Route                                      C   N=           7
#P B3LYP/6-311++G** scf(conver=11) int=ultrafine polar=optro
t cphf(rdfreq,conver=11)
Charge                                     I                0
Multiplicity                               I                1
Number of electrons                        I               48
Number of alpha electrons                  I               24
Number of beta electrons                   I               24
Number of basis functions                  I              167
Number of independent functions            I              167
Number of point charges in /Mol/           I                0
Number of translation vectors              I                0
Atomic numbers                             I   N=          12
           6           6           6           6           1           1
           1           1           1           1           1          17
Nuclear charges                            R   N=          12
  6.00000000E+00  6.00000000E+00  6.00000000E+00  6.00000000E+00  1.00000000E+00
  1.00000000E+00  1.00000000E+00  1.00000000E+00  1.00000000E+00  1.00000000E+00
  1.00000000E+00  1.70000000E+01
Current cartesian coordinates              R   N=          36
  8.87211086E-01  3.29044880E+00  1.00050763E-01  1.39381242E-02  6.82019559E-01
 -6.19048855E-01 -2.28204088E+00 -1.87693061E-01  8.07006396E-01 -4.41988555E+00
 -9.53103007E-01 -2.80862833E-01 -4.50801526E+00 -1.00862928E+00 -2.33368482E+00
  2.55880867E+00  3.80137287E+00 -9.96461214E-01 -6.12325435E+00 -1.48359476E+00
  7.30111473E-01 -2.06440505E+00 -1.21238744E-01  2.85093230E+00 -2.54151505E-01
  6.03791362E-01 -2.66207860E+00  1.28551704E+00  3.53725839E+00  2.11103859E+00
 -6.37306180E-01  4.58456488E+00 -4.42548745E-01  2.62043941E+00 -1.58256226E+00
  4.11657760E-02
Number of symbols in /Mol/                 I                0
Force Field                                I                0
Atom Types                                 C   N=          12
                                                            
                                                            
                        
Int Atom Types                             I   N=          12
           0           0           0           0           0           0
           0           0           0           0           0           0
MM charges                                 R   N=          12
  0.00000000E+00  0.00000000E+00  0.00000000E+00  0.00000000E+00  0.00000000E+00
  0.00000000E+00  0.00000000E+00  0.00000000E+00  0.00000000E+00  0.00000000E+00
  0.00000000E+00  0.00000000E+00
Integer atomic weights                     I   N=          12
          12          12          12          12           1           1
           1           1           1           1           1          35
Real atomic weights                        R   N=          12
  1.20000000E+01  1.20000000E+01  1.20000000E+01  1.20000000E+01  1.00782504E+00
  1.00782504E+00  1.00782504E+00  1.00782504E+00  1.00782504E+00  1.00782504E+00
  1.00782504E+00  3.49688527E+01
Atom fragment info                         I   N=          12
           0           0           0           0           0           0
           0           0           0           0           0           0
Atom residue num                           I   N=          12
           0           0           0           0           0           0
           0           0           0           0           0           0
Nuclear spins                              I   N=          12
           0           0           0           0           1           1
           1           1           1           1           1           3
Nuclear ZEff                               R   N=          12
 -3.60000000E+00 -3.60000000E+00 -3.60000000E+00 -3.60000000E+00 -1.00000000E+00
 -1.00000000E+00 -1.00000000E+00 -1.00000000E+00 -1.00000000E+00 -1.00000000E+00
 -1.00000000E+00 -1.42400000E+01
Nuclear ZNuc                               R   N=          12
  6.00000000E+00  6.00000000E+00  6.00000000E+00  6.00000000E+00  1.00000000E+00
  1.00000000E+00  1.00000000E+00  1.00000000E+00  1.00000000E+00  1.00000000E+00
  1.00000000E+00  1.70000000E+01
Nuclear QMom                               R   N=          12
  0.00000000E+00  0.00000000E+00  0.00000000E+00  0.00000000E+00  0.00000000E+00
  0.00000000E+00  0.00000000E+00  0.00000000E+00  0.00000000E+00  0.00000000E+00
  0.00000000E+00 -8.16500000E+00
Nuclear GFac                               R   N=          12
  0.00000000E+00  0.00000000E+00  0.00000000E+00  0.00000000E+00  2.79284600E+00
  2.79284600E+00  2.79284600E+00  2.79284600E+00  2.79284600E+00  2.79284600E+00
  2.79284600E+00  8.21874000E-01
MicOpt                                     I   N=          12
          -1          -1          -1          -1          -1          -1
          -1          -1          -1          -1          -1          -1
Number of residues                         I                0
Number of secondary structures             I                0
SymInf integers                            I   N=          26
           1           1           1           1           1           0
           0           0           0           0           0           0
           0           0           0           0           0           0
           0           0           0           0           0           0
           0           0
RotTr to input orientation                 R   N=          12
  9.99999863E-01 -5.14399198E-04  9.84035181E-05  5.14728148E-04  9.99994180E-01
 -3.37257429E-03 -9.66680959E-05  3.37262448E-03  9.99994308E-01  5.86185566E-04
  1.43837292E-03 -2.18825089E-03
Number of contracted shells                I               72
Number of primitive shells                 I              126
Pure/Cartesian d shells                    I                0
Pure/Cartesian f shells                    I                0
Highest angular momentum                   I                2
Largest degree of contraction              I                6
Shell types                                I   N=          72
           0          -1          -1          -1          -1          -2
           0          -1          -1          -1          -1          -2
           0          -1          -1          -1          -1          -2
           0          -1          -1          -1          -1          -2
           0           0           0           0           1           0
           0           0           0           1           0           0
           0           0           1           0           0           0
           0           1           0           0           0           0
           1           0           0           0           0           1
           0           0           0           0           1           0
           0           0           0           0           0          -1
           1           1           1           1           1          -2
Number of primitives per shell             I   N=          72
           6           3           1           1           1           1
           6           3           1           1           1           1
           6           3           1           1           1           1
           6           3           1           1           1           1
           3           1           1           1           1           3
           1           1           1           1           3           1
           1           1           1           3           1           1
           1           1           3           1           1           1
           1           3           1           1           1           1
           3           1           1           1           1           6
           3           1           1           1           1           1
           5           2           1           1           1           1
Shell to atom map                          I   N=          72
           1           1           1           1           1           1
           2           2           2           2           2           2
           3           3           3           3           3           3
           4           4           4           4           4           4
           5           5           5           5           5           6
           6           6           6           6           7           7
           7           7           7           8           8           8
           8           8           9           9           9           9
           9          10          10          10          10          10
          11          11          11          11          11          12
          12          12          12          12          12          12
          12          12          12          12          12          12
Primitive exponents                        R   N=         126
  4.56324000E+03  6.82024000E+02  1.54973000E+02  4.44553000E+01  1.30290000E+01
  1.82773000E+00  2.09642000E+01  4.80331000E+00  1.45933000E+00  4.83456000E-01
  1.45585000E-01  4.38000000E-02  6.26000000E-01  4.56324000E+03  6.82024000E+02
  1.54973000E+02  4.44553000E+01  1.30290000E+01  1.82773000E+00  2.09642000E+01
  4.80331000E+00  1.45933000E+00  4.83456000E-01  1.45585000E-01  4.38000000E-02
  6.26000000E-01  4.56324000E+03  6.82024000E+02  1.54973000E+02  4.44553000E+01
  1.30290000E+01  1.82773000E+00  2.09642000E+01  4.80331000E+00  1.45933000E+00
  4.83456000E-01  1.45585000E-01  4.38000000E-02  6.26000000E-01  4.56324000E+03
  6.82024000E+02  1.54973000E+02  4.44553000E+01  1.30290000E+01  1.82773000E+00
  2.09642000E+01  4.80331000E+00  1.45933000E+00  4.83456000E-01  1.45585000E-01
  4.38000000E-02  6.26000000E-01  3.38650000E+01  5.09479000E+00  1.15879000E+00
  3.25840000E-01  1.02741000E-01  3.60000000E-02  7.50000000E-01  3.38650000E+01
  5.09479000E+00  1.15879000E+00  3.25840000E-01  1.02741000E-01  3.60000000E-02
  7.50000000E-01  3.38650000E+01  5.09479000E+00  1.15879000E+00  3.25840000E-01
  1.02741000E-01  3.60000000E-02  7.50000000E-01  3.38650000E+01  5.09479000E+00
  1.15879000E+00  3.25840000E-01  1.02741000E-01  3.60000000E-02  7.50000000E-01
  3.38650000E+01  5.09479000E+00  1.15879000E+00  3.25840000E-01  1.02741000E-01
  3.60000000E-02  7.50000000E-01  3.38650000E+01  5.09479000E+00  1.15879000E+00
  3.25840000E-01  1.02741000E-01  3.60000000E-02  7.50000000E-01  3.38650000E+01
  5.09479000E+00  1.15879000E+00  3.25840000E-01  1.02741000E-01  3.60000000E-02
  7.50000000E-01  1.05819000E+05  1.58720000E+04  3.61965000E+03  1.03080000E+03
  3.39908000E+02  1.24538000E+02  1.24538000E+02  4.95135000E+01  2.08056000E+01
  6.58346000E+00  2.56468000E+00  5.59763000E-01  1.83273000E-01  4.83000000E-02
  5.89776000E+02  1.39849000E+02  4.51413000E+01  1.68733000E+01  2.77152000E+00
  6.74110000E+00  2.77152000E+00  1.02387000E+00  3.81368000E-01  1.09437000E-01
  7.50000000E-01
Contraction coefficients                   R   N=         126
  1.96665025E-03  1.52306019E-02  7.61269097E-02  2.60801033E-01  6.16462078E-01
  2.21006028E-01  1.14660081E-01  9.19999648E-01 -3.03068213E-03  1.00000000E+00
  1.00000000E+00  1.00000000E+00  1.00000000E+00  1.96665025E-03  1.52306019E-02
  7.61269097E-02  2.60801033E-01  6.16462078E-01  2.21006028E-01  1.14660081E-01
  9.19999648E-01 -3.03068213E-03  1.00000000E+00  1.00000000E+00  1.00000000E+00
  1.00000000E+00  1.96665025E-03  1.52306019E-02  7.61269097E-02  2.60801033E-01
  6.16462078E-01  2.21006028E-01  1.14660081E-01  9.19999648E-01 -3.03068213E-03
  1.00000000E+00  1.00000000E+00  1.00000000E+00  1.00000000E+00  1.96665025E-03
  1.52306019E-02  7.61269097E-02  2.60801033E-01  6.16462078E-01  2.21006028E-01
  1.14660081E-01  9.19999648E-01 -3.03068213E-03  1.00000000E+00  1.00000000E+00
  1.00000000E+00  1.00000000E+00  2.54938145E-02  1.90373109E-01  8.52161486E-01
  1.00000000E+00  1.00000000E+00  1.00000000E+00  1.00000000E+00  2.54938145E-02
  1.90373109E-01  8.52161486E-01  1.00000000E+00  1.00000000E+00  1.00000000E+00
  1.00000000E+00  2.54938145E-02  1.90373109E-01  8.52161486E-01  1.00000000E+00
  1.00000000E+00  1.00000000E+00  1.00000000E+00  2.54938145E-02  1.90373109E-01
  8.52161486E-01  1.00000000E+00  1.00000000E+00  1.00000000E+00  1.00000000E+00
  2.54938145E-02  1.90373109E-01  8.52161486E-01  1.00000000E+00  1.00000000E+00
  1.00000000E+00  1.00000000E+00  2.54938145E-02  1.90373109E-01  8.52161486E-01
  1.00000000E+00  1.00000000E+00  1.00000000E+00  1.00000000E+00  2.54938145E-02
  1.90373109E-01  8.52161486E-01  1.00000000E+00  1.00000000E+00  1.00000000E+00
  1.00000000E+00  7.38000247E-04  5.71800191E-03  2.94950099E-02  1.17286039E-01
  3.62949121E-01  5.84149195E-01  1.34176973E-01  6.24249876E-01  2.91755942E-01
  1.00000000E+00  1.00000000E+00  1.00000000E+00  1.00000000E+00  1.00000000E+00
  3.66556935E-03  2.83679194E-02  1.24756603E-01  3.39654631E-01  7.47585963E-01
 -1.57224381E+00  9.92388882E-01  1.00000000E+00  1.00000000E+00  1.00000000E+00
  1.00000000E+00
P(S=P) Contraction coefficients            R   N=         126
  0.00000000E+00  0.00000000E+00  0.00000000E+00  0.00000000E+00  0.00000000E+00
  0.00000000E+00  4.02486927E-02  2.37593957E-01  8.15853851E-01  1.00000000E+00
  1.00000000E+00  1.00000000E+00  0.00000000E+00  0.00000000E+00  0.00000000E+00
  0.00000000E+00  0.00000000E+00  0.00000000E+00  0.00000000E+00  4.02486927E-02
  2.37593957E-01  8.15853851E-01  1.00000000E+00  1.00000000E+00  1.00000000E+00
  0.00000000E+00  0.00000000E+00  0.00000000E+00  0.00000000E+00  0.00000000E+00
  0.00000000E+00  0.00000000E+00  4.02486927E-02  2.37593957E-01  8.15853851E-01
  1.00000000E+00  1.00000000E+00  1.00000000E+00  0.00000000E+00  0.00000000E+00
  0.00000000E+00  0.00000000E+00  0.00000000E+00  0.00000000E+00  0.00000000E+00
  4.02486927E-02  2.37593957E-01  8.15853851E-01  1.00000000E+00  1.00000000E+00
  1.00000000E+00  0.00000000E+00  0.00000000E+00  0.00000000E+00  0.00000000E+00
  0.00000000E+00  0.00000000E+00  0.00000000E+00  0.00000000E+00  0.00000000E+00
  0.00000000E+00  0.00000000E+00  0.00000000E+00  0.00000000E+00  0.00000000E+00
  0.00000000E+00  0.00000000E+00  0.00000000E+00  0.00000000E+00  0.00000000E+00
  0.00000000E+00  0.00000000E+00  0.00000000E+00  0.00000000E+00  0.00000000E+00
  0.00000000E+00  0.00000000E+00  0.00000000E+00  0.00000000E+00  0.00000000E+00
  0.00000000E+00  0.00000000E+00  0.00000000E+00  0.00000000E+00  0.00000000E+00
  0.00000000E+00  0.00000000E+00  0.00000000E+00  0.00000000E+00  0.00000000E+00
  0.00000000E+00  0.00000000E+00  0.00000000E+00  0.00000000E+00  0.00000000E+00
  0.00000000E+00  0.00000000E+00  0.00000000E+00  0.00000000E+00  0.00000000E+00
  0.00000000E+00  0.00000000E+00  0.00000000E+00  0.00000000E+00  0.00000000E+00
  0.00000000E+00  0.00000000E+00  0.00000000E+00  0.00000000E+00  0.00000000E+00
  0.00000000E+00  0.00000000E+00  0.00000000E+00  0.00000000E+00  1.00000000E+00
  0.00000000E+00  0.00000000E+00  0.00000000E+00  0.00000000E+00  0.00000000E+00
  0.00000000E+00  0.00000000E+00  0.00000000E+00  0.00000000E+00  0.00000000E+00
  0.00000000E+00
Coordinates of each shell                  R   N=         216
  8.87211086E-01  3.29044880E+00  1.00050763E-01  8.87211086E-01  3.29044880E+00
  1.00050763E-01  8.87211086E-01  3.29044880E+00  1.00050763E-01  8.87211086E-01
  3.29044880E+00  1.00050763E-01  8.87211086E-01  3.29044880E+00  1.00050763E-01
  8.87211086E-01  3.29044880E+00  1.00050763E-01  1.39381242E-02  6.82019559E-01
 -6.19048855E-01  1.39381242E-02  6.82019559E-01 -6.19048855E-01  1.39381242E-02
  6.82019559E-01 -6.19048855E-01  1.39381242E-02  6.82019559E-01 -6.19048855E-01
  1.39381242E-02  6.82019559E-01 -6.19048855E-01  1.39381242E-02  6.82019559E-01
 -6.19048855E-01 -2.28204088E+00 -1.87693061E-01  8.07006396E-01 -2.28204088E+00
 -1.87693061E-01  8.07006396E-01 -2.28204088E+00 -1.87693061E-01  8.07006396E-01
 -2.28204088E+00 -1.87693061E-01  8.07006396E-01 -2.28204088E+00 -1.87693061E-01
  8.07006396E-01 -2.28204088E+00 -1.87693061E-01  8.07006396E-01 -4.41988555E+00
 -9.53103007E-01 -2.80862833E-01 -4.41988555E+00 -9.53103007E-01 -2.80862833E-01
 -4.41988555E+00 -9.53103007E-01 -2.80862833E-01 -4.41988555E+00 -9.53103007E-01
 -2.80862833E-01 -4.41988555E+00 -9.53103007E-01 -2.80862833E-01 -4.41988555E+00
 -9.53103007E-01 -2.80862833E-01 -4.50801526E+00 -1.00862928E+00 -2.33368482E+00
 -4.50801526E+00 -1.00862928E+00 -2.33368482E+00 -4.50801526E+00 -1.00862928E+00
 -2.33368482E+00 -4.50801526E+00 -1.00862928E+00 -2.33368482E+00 -4.50801526E+00
 -1.00862928E+00 -2.33368482E+00  2.55880867E+00  3.80137287E+00 -9.96461214E-01
  2.55880867E+00  3.80137287E+00 -9.96461214E-01  2.55880867E+00  3.80137287E+00
 -9.96461214E-01  2.55880867E+00  3.80137287E+00 -9.96461214E-01  2.55880867E+00
  3.80137287E+00 -9.96461214E-01 -6.12325435E+00 -1.48359476E+00  7.30111473E-01
 -6.12325435E+00 -1.48359476E+00  7.30111473E-01 -6.12325435E+00 -1.48359476E+00
  7.30111473E-01 -6.12325435E+00 -1.48359476E+00  7.30111473E-01 -6.12325435E+00
 -1.48359476E+00  7.30111473E-01 -2.06440505E+00 -1.21238744E-01  2.85093230E+00
 -2.06440505E+00 -1.21238744E-01  2.85093230E+00 -2.06440505E+00 -1.21238744E-01
  2.85093230E+00 -2.06440505E+00 -1.21238744E-01  2.85093230E+00 -2.06440505E+00
 -1.21238744E-01  2.85093230E+00 -2.54151505E-01  6.03791362E-01 -2.66207860E+00
 -2.54151505E-01  6.03791362E-01 -2.66207860E+00 -2.54151505E-01  6.03791362E-01
 -2.66207860E+00 -2.54151505E-01  6.03791362E-01 -2.66207860E+00 -2.54151505E-01
  6.03791362E-01 -2.66207860E+00  1.28551704E+00  3.53725839E+00  2.11103859E+00
  1.28551704E+00  3.53725839E+00  2.11103859E+00  1.28551704E+00  3.53725839E+00
  2.11103859E+00  1.28551704E+00  3.53725839E+00  2.11103859E+00  1.28551704E+00
  3.53725839E+00  2.11103859E+00 -6.37306180E-01  4.58456488E+00 -4.42548745E-01
 -6.37306180E-01  4.58456488E+00 -4.42548745E-01 -6.37306180E-01  4.58456488E+00
 -4.42548745E-01 -6.37306180E-01  4.58456488E+00 -4.42548745E-01 -6.37306180E-01
  4.58456488E+00 -4.42548745E-01  2.62043941E+00 -1.58256226E+00  4.11657760E-02
  2.62043941E+00 -1.58256226E+00  4.11657760E-02  2.62043941E+00 -1.58256226E+00
  4.11657760E-02  2.62043941E+00 -1.58256226E+00  4.11657760E-02  2.62043941E+00
 -1.58256226E+00  4.11657760E-02  2.62043941E+00 -1.58256226E+00  4.11657760E-02
  2.62043941E+00 -1.58256226E+00  4.11657760E-02  2.62043941E+00 -1.58256226E+00
  4.11657760E-02  2.62043941E+00 -1.58256226E+00  4.11657760E-02  2.62043941E+00
 -1.58256226E+00  4.11657760E-02  2.62043941E+00 -1.58256226E+00  4.11657760E-02
  2.62043941E+00 -1.58256226E+00  4.11657760E-02  2.62043941E+00 -1.58256226E+00
  4.11657760E-02
Constraint Structure                       R   N=          36
  8.87211086E-01  3.29044880E+00  1.00050763E-01  1.39381242E-02  6.82019559E-01
 -6.19048855E-01 -2.28204088E+00 -1.87693061E-01  8.07006396E-01 -4.41988555E+00
 -9.53103007E-01 -2.80862833E-01 -4.50801526E+00 -1.00862928E+00 -2.33368482E+00
  2.55880867E+00  3.80137287E+00 -9.96461214E-01 -6.12325435E+00 -1.48359476E+00
  7.30111473E-01 -2.06440505E+00 -1.21238744E-01  2.85093230E+00 -2.54151505E-01
  6.03791362E-01 -2.66207860E+00  1.28551704E+00  3.53725839E+00  2.11103859E+00
 -6.37306180E-01  4.58456488E+00 -4.42548745E-01  2.62043941E+00 -1.58256226E+00
  4.11657760E-02
Num ILSW                                   I              100
ILSW                                       I   N=         100
           0           0           0           0           2           0
           0           0           0           0         402          -1
           5           0           0           0           0           0
           0           0           0           0           0           0
           1           0           0           0           0           0
           0           0      100000           0          -1           0
           0           0           0           0           0           0
           0           0           0           1           0           0
           0           0           1           0           0           0
           0           0           4          41           0           0
           0           0           5           0           0           0
           0           0           0           0           0           0
           0           0           0           0           0           0
           0           0           0           0           0           0
           0           0           0           0           0           0
           0           0           0           0           0           0
           0           0           0           0
Num RLSW                                   I               41
RLSW                                       R   N=          41
  8.00000000E-01  7.20000000E-01  1.00000000E+00  8.10000000E-01  2.00000000E-01
  0.00000000E+00  0.00000000E+00  1.00000000E+00  0.00000000E+00  0.00000000E+00
  0.00000000E+00  0.00000000E+00  1.00000000E+00  0.00000000E+00  0.00000000E+00
  0.00000000E+00  0.00000000E+00  1.00000000E+00  0.00000000E+00  0.00000000E+00
  0.00000000E+00  0.00000000E+00  1.00000000E+00  0.00000000E+00  0.00000000E+00
  0.00000000E+00  0.00000000E+00  1.00000000E+00  0.00000000E+00  0.00000000E+00
  0.00000000E+00  0.00000000E+00  0.00000000E+00  0.00000000E+00  0.00000000E+00
  0.00000000E+00  0.00000000E+00  0.00000000E+00  1.00000000E+00  1.00000000E+00
  0.00000000E+00
MxBond                                     I                4
NBond                                      I   N=          12
           4           4           3           3           1           1
           1           1           1           1           1           1
IBond                                      I   N=          48
           2           6          10          11           1           3
           9          12           2           4           8           0
           3           5           7           0           4           0
           0           0           1           0           0           0
           4           0           0           0           3           0
           0           0           2           0           0           0
           1           0           0           0           1           0
           0           0           2           0           0           0
RBond                                      R   N=          48
  1.00000000E+00  1.00000000E+00  1.00000000E+00  1.00000000E+00  1.00000000E+00
  1.00000000E+00  1.00000000E+00  1.00000000E+00  1.00000000E+00  2.00000000E+00
  1.00000000E+00  0.00000000E+00  2.00000000E+00  1.00000000E+00  1.00000000E+00
  0.00000000E+00  1.00000000E+00  0.00000000E+00  0.00000000E+00  0.00000000E+00
  1.00000000E+00  0.00000000E+00  0.00000000E+00  0.00000000E+00  1.00000000E+00
  0.00000000E+00  0.00000000E+00  0.00000000E+00  1.00000000E+00  0.00000000E+00
  0.00000000E+00  0.00000000E+00  1.00000000E+00  0.00000000E+00  0.00000000E+00
  0.00000000E+00  1.00000000E+00  0.00000000E+00  0.00000000E+00  0.00000000E+00
  1.00000000E+00  0.00000000E+00  0.00000000E+00  0.00000000E+00  1.00000000E+00
  0.00000000E+00  0.00000000E+00  0.00000000E+00
Virial Ratio                               R      2.003067105617649E+00
SCF Energy                                 R     -6.168942773604385E+02
Total Energy                               R     -6.168942773604385E+02
RMS Density                                R      9.437837695834103E-12
Nuclear derivative order                   I                0
External E-field                           R   N=          35
  0.00000000E+00  0.00000000E+00  0.00000000E+00  0.00000000E+00  0.00000000E+00
  0.00000000E+00  0.00000000E+00  0.00000000E+00  0.00000000E+00  0.00000000E+00
  0.00000000E+00  0.00000000E+00  0.00000000E+00  0.00000000E+00  0.00000000E+00
  0.00000000E+00  0.00000000E+00  0.00000000E+00  0.00000000E+00  0.00000000E+00
  0.00000000E+00  0.00000000E+00  0.00000000E+00  0.00000000E+00  0.00000000E+00
  0.00000000E+00  0.00000000E+00  0.00000000E+00  0.00000000E+00  0.00000000E+00
  0.00000000E+00  0.00000000E+00  0.00000000E+00  0.00000000E+00  0.00000000E+00
IOpCl                                      I                0
IROHF                                      I                0
Alpha Orbital Energies                     R   N=         167
 -1.01533247E+02 -1.02481896E+01 -1.01954579E+01 -1.01850956E+01 -1.01809303E+01
 -9.44762618E+00 -7.21193946E+00 -7.20257851E+00 -7.20238702E+00 -8.67311663E-01
 -7.85915560E-01 -7.45379766E-01 -6.38185025E-01 -5.78712989E-01 -4.86684491E-01
 -4.75974711E-01 -4.48469665E-01 -4.16016339E-01 -4.03046118E-01 -3.75426111E-01
 -3.64448837E-01 -3.06586895E-01 -2.98112815E-01 -2.79895007E-01 -3.30311769E-02
 -8.02515277E-03  6.34865939E-03  7.04767757E-03  2.13992457E-02  2.84587557E-02
  3.82708515E-02  4.10122704E-02  6.28044882E-02  6.46153486E-02  7.33769618E-02
  8.29681770E-02  8.69111122E-02  9.85956078E-02  1.10713437E-01  1.15775116E-01
  1.18704783E-01  1.21860752E-01  1.28844512E-01  1.30894260E-01  1.34662386E-01
  1.41792566E-01  1.49279528E-01  1.55760999E-01  1.60508919E-01  1.64918099E-01
  1.70658430E-01  1.86969343E-01  1.93164558E-01  2.12562361E-01  2.20069486E-01
  2.29512416E-01  2.45016538E-01  2.60257961E-01  2.71400127E-01  2.92168069E-01
  3.41864456E-01  3.54247516E-01  3.89047661E-01  4.22828658E-01  4.32559145E-01
  4.50088137E-01  4.58453757E-01  4.77025352E-01  4.89189363E-01  4.96033572E-01
  5.23099897E-01  5.27971460E-01  5.63687964E-01  5.87551066E-01  6.00175092E-01
  6.27879101E-01  6.36923194E-01  6.47902229E-01  6.55014707E-01  6.58764511E-01
  6.86622576E-01  7.04857148E-01  7.31893073E-01  7.43396713E-01  7.84105731E-01
  8.12976447E-01  8.29547647E-01  8.61326842E-01  8.91964990E-01  9.05219643E-01
  9.50548068E-01  9.59168061E-01  1.00398740E+00  1.02985446E+00  1.06523604E+00
  1.08291767E+00  1.13155588E+00  1.16531845E+00  1.19763966E+00  1.28788399E+00
  1.40962077E+00  1.42027062E+00  1.44767318E+00  1.46860573E+00  1.50368267E+00
  1.54285405E+00  1.55349038E+00  1.58617100E+00  1.61069282E+00  1.62301337E+00
  1.65304415E+00  1.69321716E+00  1.69870163E+00  1.72116573E+00  1.78089216E+00
  1.78391707E+00  1.86794726E+00  1.89181782E+00  1.93843202E+00  1.98180850E+00
  2.01772104E+00  2.07695490E+00  2.11868450E+00  2.17287908E+00  2.18938421E+00
  2.20166080E+00  2.25354076E+00  2.29447568E+00  2.30934029E+00  2.36043561E+00
  2.36962619E+00  2.45633311E+00  2.46217131E+00  2.49552883E+00  2.51843078E+00
  2.56256406E+00  2.57577019E+00  2.58843060E+00  2.60994671E+00  2.64062606E+00
  2.72926284E+00  2.74577015E+00  2.75499661E+00  2.78488235E+00  2.83740608E+00
  2.87749331E+00  2.93736069E+00  3.07934444E+00  3.10109309E+00  3.18088424E+00
  3.39431210E+00  3.50790212E+00  3.71590996E+00  3.78798418E+00  3.79991318E+00
  3.94733261E+00  4.11782771E+00  4.29249912E+00  9.75716986E+00  2.37222580E+01
  2.37878526E+01  2.39474180E+01  2.42494561E+01  2.59328209E+01  2.59690143E+01
  2.64433477E+01  2.15747109E+02
Alpha MO coefficients                      R   N=       27889
  1.34897989E-07 -2.72009234E-07 -3.02059833E-06 -2.07957774E-06 -1.48149196E-06
  1.44163708E-06  2.12978453E-05  1.56791388E-05  9.53077422E-06 -6.86064236E-06
  4.01574294E-05  3.75859372E-05  1.36934197E-05 -1.70600812E-03 -1.43486956E-04
  5.01468461E-04  2.90822727E-05  7.27625373E-06 -5.13834308E-06 -4.03109816E-06
  1.24193012E-05  4.78728319E-07  1.59509978E-06 -3.41014672E-06  1.12212969E-05
 -1.18252355E-05  5.29696683E-06 -1.41998829E-05 -1.09984973E-05  2.03945177E-05
 -2.01477479E-05  1.65639204E-04  1.38284474E-04 -1.06211865E-04 -1.24384116E-05
  3.77821839E-03 -4.82018281E-04  4.49823798E-04  8.63468841E-04  1.00473524E-05
 -5.50485811E-07  3.30581677E-06 -3.59712881E-06  6.28621809E-06 -5.27942964E-07
  1.55442285E-06  3.86058186E-06 -2.51990636E-06 -3.68274236E-06 -9.63159191E-06
 -2.35233634E-05  9.42732526E-06  2.33330565E-05  5.16533403E-05  2.38992751E-05
 -7.80227778E-06 -6.10560979E-05 -1.01450927E-03 -1.27073442E-03 -4.04178290E-04
 -9.92095457E-05  7.02521611E-06  5.78779904E-06 -5.70846945E-06  1.93686010E-06
 -3.57057436E-06  3.79660462E-07 -1.11913410E-06 -1.75822193E-06  5.88949806E-07
  4.93114223E-07  1.11347231E-05  7.44656547E-06 -2.40146478E-06  2.43135024E-06
 -5.86896334E-05 -9.57027551E-05 -2.44497947E-05  6.03323096E-05 -1.79350972E-03
 -3.55175291E-04 -1.86462163E-04 -1.62251225E-04 -5.25188661E-06 -2.18227448E-06
 -3.28099444E-06 -1.89703479E-06 -2.00309639E-06 -3.34416905E-06  3.78232564E-05
  5.03057966E-05  2.77683902E-05  6.19270138E-06 -7.23281548E-08  6.59425926E-06
  1.24960846E-05 -8.53899542E-05  7.25838714E-05  2.19796711E-04  8.75626122E-06
  1.37839061E-05 -1.10326954E-05  3.12665724E-06 -2.65322588E-05 -4.67149808E-05
 -1.09464845E-04 -1.76221831E-06 -1.84871849E-07  1.45019327E-06  6.48451907E-06
 -4.13955697E-05  5.73893387E-05  1.35234731E-04 -1.17483756E-05  1.60665864E-06
  1.44172343E-05 -5.59965402E-07 -6.37637192E-05 -1.16886750E-04  1.40961063E-04
 -8.39342667E-06  2.82143300E-06 -1.70997009E-05  9.54451999E-06 -5.58903139E-05
 -1.03703612E-05  8.84435570E-05 -5.15943714E-06  1.22826892E-05  1.38554717E-05
 -8.08549779E-06  4.36297407E-05 -1.40613127E-04 -3.15912283E-04  8.60622222E-07
 -6.56358627E-06  3.74159637E-07  4.11609679E-01  6.54076198E-01  1.50038658E-02