(R)-3-chloro-1-butene tau=120                                           
SP        RB3LYP                                                      6-311++G(d,p)       
Number of atoms                            I               12
Info1-9                                    I   N=           9
          26          26           0           0           0         110
           1          18        -502
Full Title                                 C   N=           3
(R)-3-chloro-1-butene tau=120       
Route                                      C   N=           7
#P B3LYP/6-311++G** scf(conver=11) int=ultrafine polar=optro
t cphf(rdfreq,conver=11)
Charge                                     I                0
Multiplicity                               I                1
Number of electrons                        I               48
Number of alpha electrons                  I               24
Number of beta electrons                   I               24
Number of basis functions                  I              167
Number of independent functions            I              167
Number of point charges in /Mol/           I                0
Number of translation vectors              I                0
Atomic numbers                             I   N=          12
           6           6           6           6           1           1
           1           1           1           1           1          17
Nuclear charges                            R   N=          12
  6.00000000E+00  6.00000000E+00  6.00000000E+00  6.00000000E+00  1.00000000E+00
  1.00000000E+00  1.00000000E+00  1.00000000E+00  1.00000000E+00  1.00000000E+00
  1.00000000E+00  1.70000000E+01
Current cartesian coordinates              R   N=          36
  8.85850794E-01  3.28158493E+00  6.25082980E-02  1.43590465E-02  6.60953880E-01
 -6.14521771E-01 -2.27957450E+00 -1.78786295E-01  8.04915727E-01 -4.41140590E+00
 -9.33088546E-01 -2.91886929E-01 -4.58689831E+00 -1.03820411E+00 -2.33331519E+00
  2.58935354E+00  3.91293779E+00 -9.28321918E-01 -6.04984341E+00 -1.47546454E+00
  8.10362002E-01 -2.13714745E+00 -1.10165082E-01  2.85324254E+00 -3.02686054E-01
  4.69014961E-01 -2.63932648E+00  1.30090883E+00  3.57113751E+00  2.07110320E+00
 -5.13449509E-01  4.75285466E+00 -3.72834876E-01  2.61437563E+00 -1.59212324E+00
  4.54705155E-02
Number of symbols in /Mol/                 I                0
Force Field                                I                0
Atom Types                                 C   N=          12
                                                            
                                                            
                        
Int Atom Types                             I   N=          12
           0           0           0           0           0           0
           0           0           0           0           0           0
MM charges                                 R   N=          12
  0.00000000E+00  0.00000000E+00  0.00000000E+00  0.00000000E+00  0.00000000E+00
  0.00000000E+00  0.00000000E+00  0.00000000E+00  0.00000000E+00  0.00000000E+00
  0.00000000E+00  0.00000000E+00
Integer atomic weights                     I   N=          12
          12          12          12          12           1           1
           1           1           1           1           1          35
Real atomic weights                        R   N=          12
  1.20000000E+01  1.20000000E+01  1.20000000E+01  1.20000000E+01  1.00782504E+00
  1.00782504E+00  1.00782504E+00  1.00782504E+00  1.00782504E+00  1.00782504E+00
  1.00782504E+00  3.49688527E+01
Atom fragment info                         I   N=          12
           0           0           0           0           0           0
           0           0           0           0           0           0
Atom residue num                           I   N=          12
           0           0           0           0           0           0
           0           0           0           0           0           0
Nuclear spins                              I   N=          12
           0           0           0           0           1           1
           1           1           1           1           1           3
Nuclear ZEff                               R   N=          12
 -3.60000000E+00 -3.60000000E+00 -3.60000000E+00 -3.60000000E+00 -1.00000000E+00
 -1.00000000E+00 -1.00000000E+00 -1.00000000E+00 -1.00000000E+00 -1.00000000E+00
 -1.00000000E+00 -1.42400000E+01
Nuclear ZNuc                               R   N=          12
  6.00000000E+00  6.00000000E+00  6.00000000E+00  6.00000000E+00  1.00000000E+00
  1.00000000E+00  1.00000000E+00  1.00000000E+00  1.00000000E+00  1.00000000E+00
  1.00000000E+00  1.70000000E+01
Nuclear QMom                               R   N=          12
  0.00000000E+00  0.00000000E+00  0.00000000E+00  0.00000000E+00  0.00000000E+00
  0.00000000E+00  0.00000000E+00  0.00000000E+00  0.00000000E+00  0.00000000E+00
  0.00000000E+00 -8.16500000E+00
Nuclear GFac                               R   N=          12
  0.00000000E+00  0.00000000E+00  0.00000000E+00  0.00000000E+00  2.79284600E+00
  2.79284600E+00  2.79284600E+00  2.79284600E+00  2.79284600E+00  2.79284600E+00
  2.79284600E+00  8.21874000E-01
MicOpt                                     I   N=          12
          -1          -1          -1          -1          -1          -1
          -1          -1          -1          -1          -1          -1
Number of residues                         I                0
Number of secondary structures             I                0
SymInf integers                            I   N=          26
           1           1           1           1           1           0
           0           0           0           0           0           0
           0           0           0           0           0           0
           0           0           0           0           0           0
           0           0
RotTr to input orientation                 R   N=          12
  9.99996640E-01  2.58979103E-03  1.11368269E-04 -2.59001003E-03  9.99994619E-01
  2.01341953E-03 -1.06153334E-04 -2.01370121E-03  9.99997967E-01  7.28946108E-04
  3.02193153E-03  6.91773620E-04
Number of contracted shells                I               72
Number of primitive shells                 I              126
Pure/Cartesian d shells                    I                0
Pure/Cartesian f shells                    I                0
Highest angular momentum                   I                2
Largest degree of contraction              I                6
Shell types                                I   N=          72
           0          -1          -1          -1          -1          -2
           0          -1          -1          -1          -1          -2
           0          -1          -1          -1          -1          -2
           0          -1          -1          -1          -1          -2
           0           0           0           0           1           0
           0           0           0           1           0           0
           0           0           1           0           0           0
           0           1           0           0           0           0
           1           0           0           0           0           1
           0           0           0           0           1           0
           0           0           0           0           0          -1
           1           1           1           1           1          -2
Number of primitives per shell             I   N=          72
           6           3           1           1           1           1
           6           3           1           1           1           1
           6           3           1           1           1           1
           6           3           1           1           1           1
           3           1           1           1           1           3
           1           1           1           1           3           1
           1           1           1           3           1           1
           1           1           3           1           1           1
           1           3           1           1           1           1
           3           1           1           1           1           6
           3           1           1           1           1           1
           5           2           1           1           1           1
Shell to atom map                          I   N=          72
           1           1           1           1           1           1
           2           2           2           2           2           2
           3           3           3           3           3           3
           4           4           4           4           4           4
           5           5           5           5           5           6
           6           6           6           6           7           7
           7           7           7           8           8           8
           8           8           9           9           9           9
           9          10          10          10          10          10
          11          11          11          11          11          12
          12          12          12          12          12          12
          12          12          12          12          12          12
Primitive exponents                        R   N=         126
  4.56324000E+03  6.82024000E+02  1.54973000E+02  4.44553000E+01  1.30290000E+01
  1.82773000E+00  2.09642000E+01  4.80331000E+00  1.45933000E+00  4.83456000E-01
  1.45585000E-01  4.38000000E-02  6.26000000E-01  4.56324000E+03  6.82024000E+02
  1.54973000E+02  4.44553000E+01  1.30290000E+01  1.82773000E+00  2.09642000E+01
  4.80331000E+00  1.45933000E+00  4.83456000E-01  1.45585000E-01  4.38000000E-02
  6.26000000E-01  4.56324000E+03  6.82024000E+02  1.54973000E+02  4.44553000E+01
  1.30290000E+01  1.82773000E+00  2.09642000E+01  4.80331000E+00  1.45933000E+00
  4.83456000E-01  1.45585000E-01  4.38000000E-02  6.26000000E-01  4.56324000E+03
  6.82024000E+02  1.54973000E+02  4.44553000E+01  1.30290000E+01  1.82773000E+00
  2.09642000E+01  4.80331000E+00  1.45933000E+00  4.83456000E-01  1.45585000E-01
  4.38000000E-02  6.26000000E-01  3.38650000E+01  5.09479000E+00  1.15879000E+00
  3.25840000E-01  1.02741000E-01  3.60000000E-02  7.50000000E-01  3.38650000E+01
  5.09479000E+00  1.15879000E+00  3.25840000E-01  1.02741000E-01  3.60000000E-02
  7.50000000E-01  3.38650000E+01  5.09479000E+00  1.15879000E+00  3.25840000E-01
  1.02741000E-01  3.60000000E-02  7.50000000E-01  3.38650000E+01  5.09479000E+00
  1.15879000E+00  3.25840000E-01  1.02741000E-01  3.60000000E-02  7.50000000E-01
  3.38650000E+01  5.09479000E+00  1.15879000E+00  3.25840000E-01  1.02741000E-01
  3.60000000E-02  7.50000000E-01  3.38650000E+01  5.09479000E+00  1.15879000E+00
  3.25840000E-01  1.02741000E-01  3.60000000E-02  7.50000000E-01  3.38650000E+01
  5.09479000E+00  1.15879000E+00  3.25840000E-01  1.02741000E-01  3.60000000E-02
  7.50000000E-01  1.05819000E+05  1.58720000E+04  3.61965000E+03  1.03080000E+03
  3.39908000E+02  1.24538000E+02  1.24538000E+02  4.95135000E+01  2.08056000E+01
  6.58346000E+00  2.56468000E+00  5.59763000E-01  1.83273000E-01  4.83000000E-02
  5.89776000E+02  1.39849000E+02  4.51413000E+01  1.68733000E+01  2.77152000E+00
  6.74110000E+00  2.77152000E+00  1.02387000E+00  3.81368000E-01  1.09437000E-01
  7.50000000E-01
Contraction coefficients                   R   N=         126
  1.96665025E-03  1.52306019E-02  7.61269097E-02  2.60801033E-01  6.16462078E-01
  2.21006028E-01  1.14660081E-01  9.19999648E-01 -3.03068213E-03  1.00000000E+00
  1.00000000E+00  1.00000000E+00  1.00000000E+00  1.96665025E-03  1.52306019E-02
  7.61269097E-02  2.60801033E-01  6.16462078E-01  2.21006028E-01  1.14660081E-01
  9.19999648E-01 -3.03068213E-03  1.00000000E+00  1.00000000E+00  1.00000000E+00
  1.00000000E+00  1.96665025E-03  1.52306019E-02  7.61269097E-02  2.60801033E-01
  6.16462078E-01  2.21006028E-01  1.14660081E-01  9.19999648E-01 -3.03068213E-03
  1.00000000E+00  1.00000000E+00  1.00000000E+00  1.00000000E+00  1.96665025E-03
  1.52306019E-02  7.61269097E-02  2.60801033E-01  6.16462078E-01  2.21006028E-01
  1.14660081E-01  9.19999648E-01 -3.03068213E-03  1.00000000E+00  1.00000000E+00
  1.00000000E+00  1.00000000E+00  2.54938145E-02  1.90373109E-01  8.52161486E-01
  1.00000000E+00  1.00000000E+00  1.00000000E+00  1.00000000E+00  2.54938145E-02
  1.90373109E-01  8.52161486E-01  1.00000000E+00  1.00000000E+00  1.00000000E+00
  1.00000000E+00  2.54938145E-02  1.90373109E-01  8.52161486E-01  1.00000000E+00
  1.00000000E+00  1.00000000E+00  1.00000000E+00  2.54938145E-02  1.90373109E-01
  8.52161486E-01  1.00000000E+00  1.00000000E+00  1.00000000E+00  1.00000000E+00
  2.54938145E-02  1.90373109E-01  8.52161486E-01  1.00000000E+00  1.00000000E+00
  1.00000000E+00  1.00000000E+00  2.54938145E-02  1.90373109E-01  8.52161486E-01
  1.00000000E+00  1.00000000E+00  1.00000000E+00  1.00000000E+00  2.54938145E-02
  1.90373109E-01  8.52161486E-01  1.00000000E+00  1.00000000E+00  1.00000000E+00
  1.00000000E+00  7.38000247E-04  5.71800191E-03  2.94950099E-02  1.17286039E-01
  3.62949121E-01  5.84149195E-01  1.34176973E-01  6.24249876E-01  2.91755942E-01
  1.00000000E+00  1.00000000E+00  1.00000000E+00  1.00000000E+00  1.00000000E+00
  3.66556935E-03  2.83679194E-02  1.24756603E-01  3.39654631E-01  7.47585963E-01
 -1.57224381E+00  9.92388882E-01  1.00000000E+00  1.00000000E+00  1.00000000E+00
  1.00000000E+00
P(S=P) Contraction coefficients            R   N=         126
  0.00000000E+00  0.00000000E+00  0.00000000E+00  0.00000000E+00  0.00000000E+00
  0.00000000E+00  4.02486927E-02  2.37593957E-01  8.15853851E-01  1.00000000E+00
  1.00000000E+00  1.00000000E+00  0.00000000E+00  0.00000000E+00  0.00000000E+00
  0.00000000E+00  0.00000000E+00  0.00000000E+00  0.00000000E+00  4.02486927E-02
  2.37593957E-01  8.15853851E-01  1.00000000E+00  1.00000000E+00  1.00000000E+00
  0.00000000E+00  0.00000000E+00  0.00000000E+00  0.00000000E+00  0.00000000E+00
  0.00000000E+00  0.00000000E+00  4.02486927E-02  2.37593957E-01  8.15853851E-01
  1.00000000E+00  1.00000000E+00  1.00000000E+00  0.00000000E+00  0.00000000E+00
  0.00000000E+00  0.00000000E+00  0.00000000E+00  0.00000000E+00  0.00000000E+00
  4.02486927E-02  2.37593957E-01  8.15853851E-01  1.00000000E+00  1.00000000E+00
  1.00000000E+00  0.00000000E+00  0.00000000E+00  0.00000000E+00  0.00000000E+00
  0.00000000E+00  0.00000000E+00  0.00000000E+00  0.00000000E+00  0.00000000E+00
  0.00000000E+00  0.00000000E+00  0.00000000E+00  0.00000000E+00  0.00000000E+00
  0.00000000E+00  0.00000000E+00  0.00000000E+00  0.00000000E+00  0.00000000E+00
  0.00000000E+00  0.00000000E+00  0.00000000E+00  0.00000000E+00  0.00000000E+00
  0.00000000E+00  0.00000000E+00  0.00000000E+00  0.00000000E+00  0.00000000E+00
  0.00000000E+00  0.00000000E+00  0.00000000E+00  0.00000000E+00  0.00000000E+00
  0.00000000E+00  0.00000000E+00  0.00000000E+00  0.00000000E+00  0.00000000E+00
  0.00000000E+00  0.00000000E+00  0.00000000E+00  0.00000000E+00  0.00000000E+00
  0.00000000E+00  0.00000000E+00  0.00000000E+00  0.00000000E+00  0.00000000E+00
  0.00000000E+00  0.00000000E+00  0.00000000E+00  0.00000000E+00  0.00000000E+00
  0.00000000E+00  0.00000000E+00  0.00000000E+00  0.00000000E+00  0.00000000E+00
  0.00000000E+00  0.00000000E+00  0.00000000E+00  0.00000000E+00  1.00000000E+00
  0.00000000E+00  0.00000000E+00  0.00000000E+00  0.00000000E+00  0.00000000E+00
  0.00000000E+00  0.00000000E+00  0.00000000E+00  0.00000000E+00  0.00000000E+00
  0.00000000E+00
Coordinates of each shell                  R   N=         216
  8.85850794E-01  3.28158493E+00  6.25082980E-02  8.85850794E-01  3.28158493E+00
  6.25082980E-02  8.85850794E-01  3.28158493E+00  6.25082980E-02  8.85850794E-01
  3.28158493E+00  6.25082980E-02  8.85850794E-01  3.28158493E+00  6.25082980E-02
  8.85850794E-01  3.28158493E+00  6.25082980E-02  1.43590465E-02  6.60953880E-01
 -6.14521771E-01  1.43590465E-02  6.60953880E-01 -6.14521771E-01  1.43590465E-02
  6.60953880E-01 -6.14521771E-01  1.43590465E-02  6.60953880E-01 -6.14521771E-01
  1.43590465E-02  6.60953880E-01 -6.14521771E-01  1.43590465E-02  6.60953880E-01
 -6.14521771E-01 -2.27957450E+00 -1.78786295E-01  8.04915727E-01 -2.27957450E+00
 -1.78786295E-01  8.04915727E-01 -2.27957450E+00 -1.78786295E-01  8.04915727E-01
 -2.27957450E+00 -1.78786295E-01  8.04915727E-01 -2.27957450E+00 -1.78786295E-01
  8.04915727E-01 -2.27957450E+00 -1.78786295E-01  8.04915727E-01 -4.41140590E+00
 -9.33088546E-01 -2.91886929E-01 -4.41140590E+00 -9.33088546E-01 -2.91886929E-01
 -4.41140590E+00 -9.33088546E-01 -2.91886929E-01 -4.41140590E+00 -9.33088546E-01
 -2.91886929E-01 -4.41140590E+00 -9.33088546E-01 -2.91886929E-01 -4.41140590E+00
 -9.33088546E-01 -2.91886929E-01 -4.58689831E+00 -1.03820411E+00 -2.33331519E+00
 -4.58689831E+00 -1.03820411E+00 -2.33331519E+00 -4.58689831E+00 -1.03820411E+00
 -2.33331519E+00 -4.58689831E+00 -1.03820411E+00 -2.33331519E+00 -4.58689831E+00
 -1.03820411E+00 -2.33331519E+00  2.58935354E+00  3.91293779E+00 -9.28321918E-01
  2.58935354E+00  3.91293779E+00 -9.28321918E-01  2.58935354E+00  3.91293779E+00
 -9.28321918E-01  2.58935354E+00  3.91293779E+00 -9.28321918E-01  2.58935354E+00
  3.91293779E+00 -9.28321918E-01 -6.04984341E+00 -1.47546454E+00  8.10362002E-01
 -6.04984341E+00 -1.47546454E+00  8.10362002E-01 -6.04984341E+00 -1.47546454E+00
  8.10362002E-01 -6.04984341E+00 -1.47546454E+00  8.10362002E-01 -6.04984341E+00
 -1.47546454E+00  8.10362002E-01 -2.13714745E+00 -1.10165082E-01  2.85324254E+00
 -2.13714745E+00 -1.10165082E-01  2.85324254E+00 -2.13714745E+00 -1.10165082E-01
  2.85324254E+00 -2.13714745E+00 -1.10165082E-01  2.85324254E+00 -2.13714745E+00
 -1.10165082E-01  2.85324254E+00 -3.02686054E-01  4.69014961E-01 -2.63932648E+00
 -3.02686054E-01  4.69014961E-01 -2.63932648E+00 -3.02686054E-01  4.69014961E-01
 -2.63932648E+00 -3.02686054E-01  4.69014961E-01 -2.63932648E+00 -3.02686054E-01
  4.69014961E-01 -2.63932648E+00  1.30090883E+00  3.57113751E+00  2.07110320E+00
  1.30090883E+00  3.57113751E+00  2.07110320E+00  1.30090883E+00  3.57113751E+00
  2.07110320E+00  1.30090883E+00  3.57113751E+00  2.07110320E+00  1.30090883E+00
  3.57113751E+00  2.07110320E+00 -5.13449509E-01  4.75285466E+00 -3.72834876E-01
 -5.13449509E-01  4.75285466E+00 -3.72834876E-01 -5.13449509E-01  4.75285466E+00
 -3.72834876E-01 -5.13449509E-01  4.75285466E+00 -3.72834876E-01 -5.13449509E-01
  4.75285466E+00 -3.72834876E-01  2.61437563E+00 -1.59212324E+00  4.54705155E-02
  2.61437563E+00 -1.59212324E+00  4.54705155E-02  2.61437563E+00 -1.59212324E+00
  4.54705155E-02  2.61437563E+00 -1.59212324E+00  4.54705155E-02  2.61437563E+00
 -1.59212324E+00  4.54705155E-02  2.61437563E+00 -1.59212324E+00  4.54705155E-02
  2.61437563E+00 -1.59212324E+00  4.54705155E-02  2.61437563E+00 -1.59212324E+00
  4.54705155E-02  2.61437563E+00 -1.59212324E+00  4.54705155E-02  2.61437563E+00
 -1.59212324E+00  4.54705155E-02  2.61437563E+00 -1.59212324E+00  4.54705155E-02
  2.61437563E+00 -1.59212324E+00  4.54705155E-02  2.61437563E+00 -1.59212324E+00
  4.54705155E-02
Constraint Structure                       R   N=          36
  8.85850794E-01  3.28158493E+00  6.25082980E-02  1.43590465E-02  6.60953880E-01
 -6.14521771E-01 -2.27957450E+00 -1.78786295E-01  8.04915727E-01 -4.41140590E+00
 -9.33088546E-01 -2.91886929E-01 -4.58689831E+00 -1.03820411E+00 -2.33331519E+00
  2.58935354E+00  3.91293779E+00 -9.28321918E-01 -6.04984341E+00 -1.47546454E+00
  8.10362002E-01 -2.13714745E+00 -1.10165082E-01  2.85324254E+00 -3.02686054E-01
  4.69014961E-01 -2.63932648E+00  1.30090883E+00  3.57113751E+00  2.07110320E+00
 -5.13449509E-01  4.75285466E+00 -3.72834876E-01  2.61437563E+00 -1.59212324E+00
  4.54705155E-02
Num ILSW                                   I              100
ILSW                                       I   N=         100
           0           0           0           0           2           0
           0           0           0           0         402          -1
           5           0           0           0           0           0
           0           0           0           0           0           0
           1           0           0           0           0           0
           0           0      100000           0          -1           0
           0           0           0           0           0           0
           0           0           0           1           0           0
           0           0           1           0           0           0
           0           0           4          41           0           0
           0           0           5           0           0           0
           0           0           0           0           0           0
           0           0           0           0           0           0
           0           0           0           0           0           0
           0           0           0           0           0           0
           0           0           0           0           0           0
           0           0           0           0
Num RLSW                                   I               41
RLSW                                       R   N=          41
  8.00000000E-01  7.20000000E-01  1.00000000E+00  8.10000000E-01  2.00000000E-01
  0.00000000E+00  0.00000000E+00  1.00000000E+00  0.00000000E+00  0.00000000E+00
  0.00000000E+00  0.00000000E+00  1.00000000E+00  0.00000000E+00  0.00000000E+00
  0.00000000E+00  0.00000000E+00  1.00000000E+00  0.00000000E+00  0.00000000E+00
  0.00000000E+00  0.00000000E+00  1.00000000E+00  0.00000000E+00  0.00000000E+00
  0.00000000E+00  0.00000000E+00  1.00000000E+00  0.00000000E+00  0.00000000E+00
  0.00000000E+00  0.00000000E+00  0.00000000E+00  0.00000000E+00  0.00000000E+00
  0.00000000E+00  0.00000000E+00  0.00000000E+00  1.00000000E+00  1.00000000E+00
  0.00000000E+00
MxBond                                     I                4
NBond                                      I   N=          12
           4           4           3           3           1           1
           1           1           1           1           1           1
IBond                                      I   N=          48
           2           6          10          11           1           3
           9          12           2           4           8           0
           3           5           7           0           4           0
           0           0           1           0           0           0
           4           0           0           0           3           0
           0           0           2           0           0           0
           1           0           0           0           1           0
           0           0           2           0           0           0
RBond                                      R   N=          48
  1.00000000E+00  1.00000000E+00  1.00000000E+00  1.00000000E+00  1.00000000E+00
  1.00000000E+00  1.00000000E+00  1.00000000E+00  1.00000000E+00  2.00000000E+00
  1.00000000E+00  0.00000000E+00  2.00000000E+00  1.00000000E+00  1.00000000E+00
  0.00000000E+00  1.00000000E+00  0.00000000E+00  0.00000000E+00  0.00000000E+00
  1.00000000E+00  0.00000000E+00  0.00000000E+00  0.00000000E+00  1.00000000E+00
  0.00000000E+00  0.00000000E+00  0.00000000E+00  1.00000000E+00  0.00000000E+00
  0.00000000E+00  0.00000000E+00  1.00000000E+00  0.00000000E+00  0.00000000E+00
  0.00000000E+00  1.00000000E+00  0.00000000E+00  0.00000000E+00  0.00000000E+00
  1.00000000E+00  0.00000000E+00  0.00000000E+00  0.00000000E+00  1.00000000E+00
  0.00000000E+00  0.00000000E+00  0.00000000E+00
Virial Ratio                               R      2.003048401140819E+00
SCF Energy                                 R     -6.168937252234603E+02
Total Energy                               R     -6.168937252234603E+02
RMS Density                                R      8.546731802455078E-12
Nuclear derivative order                   I                0
External E-field                           R   N=          35
  0.00000000E+00  0.00000000E+00  0.00000000E+00  0.00000000E+00  0.00000000E+00
  0.00000000E+00  0.00000000E+00  0.00000000E+00  0.00000000E+00  0.00000000E+00
  0.00000000E+00  0.00000000E+00  0.00000000E+00  0.00000000E+00  0.00000000E+00
  0.00000000E+00  0.00000000E+00  0.00000000E+00  0.00000000E+00  0.00000000E+00
  0.00000000E+00  0.00000000E+00  0.00000000E+00  0.00000000E+00  0.00000000E+00
  0.00000000E+00  0.00000000E+00  0.00000000E+00  0.00000000E+00  0.00000000E+00
  0.00000000E+00  0.00000000E+00  0.00000000E+00  0.00000000E+00  0.00000000E+00
IOpCl                                      I                0
IROHF                                      I                0
Alpha Orbital Energies                     R   N=         167
 -1.01534315E+02 -1.02489276E+01 -1.01940008E+01 -1.01839008E+01 -1.01808338E+01
 -9.44873630E+00 -7.21311689E+00 -7.20363068E+00 -7.20347092E+00 -8.68397363E-01
 -7.87242735E-01 -7.43091267E-01 -6.42102253E-01 -5.78512858E-01 -4.88245361E-01
 -4.74982847E-01 -4.42132456E-01 -4.23546781E-01 -3.99831664E-01 -3.72488915E-01
 -3.64278503E-01 -3.06495060E-01 -2.99358634E-01 -2.80589295E-01 -3.29974627E-02
 -7.72867222E-03  5.48881087E-03  7.45921235E-03  2.13895547E-02  2.82798574E-02
  3.86680694E-02  4.08809536E-02  6.35651093E-02  6.53729031E-02  7.30734476E-02
  8.38937770E-02  8.83359115E-02  9.93795118E-02  1.10144484E-01  1.15811923E-01
  1.18349883E-01  1.21399878E-01  1.29306021E-01  1.30285802E-01  1.35327403E-01
  1.40714901E-01  1.50737664E-01  1.57220277E-01  1.60773492E-01  1.63460058E-01
  1.71096637E-01  1.87974476E-01  1.91795885E-01  2.12420225E-01  2.24154110E-01
  2.28884105E-01  2.47032236E-01  2.61812041E-01  2.73927660E-01  2.92034742E-01
  3.41501598E-01  3.57370542E-01  3.90859672E-01  4.26440186E-01  4.29963981E-01
  4.50116240E-01  4.59848652E-01  4.79162105E-01  4.87801939E-01  4.95019879E-01
  5.25573515E-01  5.29492738E-01  5.67244109E-01  5.86687655E-01  6.04542738E-01
  6.22866157E-01  6.36350923E-01  6.49805246E-01  6.59499115E-01  6.66121686E-01
  6.92807907E-01  7.06872980E-01  7.38465541E-01  7.45413460E-01  7.85670975E-01
  8.16280774E-01  8.31105310E-01  8.65011926E-01  8.92243615E-01  9.03256323E-01
  9.41983462E-01  9.59207494E-01  1.00793324E+00  1.03290014E+00  1.06616305E+00
  1.07981348E+00  1.12535005E+00  1.17495651E+00  1.19723870E+00  1.27521086E+00
  1.37099436E+00  1.42723629E+00  1.46671303E+00  1.47799737E+00  1.50377973E+00
  1.53949568E+00  1.57987148E+00  1.59077435E+00  1.61022314E+00  1.63154058E+00
  1.66852667E+00  1.69507099E+00  1.69934091E+00  1.72477372E+00  1.76761082E+00
  1.78922749E+00  1.86716971E+00  1.88965890E+00  1.93661459E+00  1.98295262E+00
  2.01284208E+00  2.11361133E+00  2.12783996E+00  2.18335453E+00  2.19491529E+00
  2.21600797E+00  2.25591287E+00  2.30277400E+00  2.31364942E+00  2.34453484E+00
  2.35319319E+00  2.43361438E+00  2.45927628E+00  2.48403085E+00  2.54039487E+00
  2.55678420E+00  2.57551619E+00  2.58254289E+00  2.62213935E+00  2.64687392E+00
  2.72714739E+00  2.73312030E+00  2.75004934E+00  2.78558151E+00  2.84092781E+00
  2.86418615E+00  2.92657406E+00  3.08827531E+00  3.10365434E+00  3.18989210E+00
  3.41702067E+00  3.51349443E+00  3.71893700E+00  3.75593578E+00  3.76899365E+00
  3.95222035E+00  4.14729772E+00  4.29628499E+00  9.75403968E+00  2.37261759E+01
  2.37977674E+01  2.39533444E+01  2.42574603E+01  2.59281075E+01  2.59743882E+01
  2.64443942E+01  2.15743467E+02
Alpha MO coefficients                      R   N=       27889
  2.46587384E-07 -5.89386019E-07 -2.47427970E-06 -3.15006196E-06 -1.34040623E-06
  1.82087669E-06  1.79964749E-05  2.11063663E-05  9.37367167E-06  4.74433136E-06
  3.59254181E-05  3.42458726E-05  1.94595143E-05 -1.77680021E-03 -1.41943959E-04
  5.28586552E-04  2.99250313E-05  6.05270646E-06 -1.52322012E-06 -4.33086450E-06
  1.40490023E-05  3.56356559E-07  1.57960620E-06 -3.34828422E-06  1.15565363E-05
 -1.23533060E-05  5.06280609E-06 -1.46352252E-05 -1.13104736E-05  2.15812005E-05
 -1.80831852E-05  1.79758736E-04  1.24852408E-04 -1.19632304E-04 -5.40395384E-06
  3.63202050E-03 -4.20775781E-04  4.81264201E-04  8.07189873E-04  8.90418184E-06
 -8.21177152E-07  4.31908806E-06 -2.85257342E-06  9.10165509E-06 -5.87567270E-07
  1.72118102E-06  4.06060830E-06 -2.48264130E-06 -4.28750990E-06 -8.50636127E-06
 -2.43373861E-05  9.50725072E-06  2.54450093E-05  2.17487157E-05  1.47908351E-05
 -9.49258275E-06 -6.16161569E-05 -9.36616162E-04 -1.19407962E-03 -3.66927405E-04
 -1.25026957E-04  6.16820560E-06  5.77993535E-06 -5.86774236E-06  1.09741354E-06
 -4.01288504E-06  3.52738123E-07 -1.04448181E-06 -1.69210293E-06  6.98603720E-07
  6.84928705E-07  1.04797365E-05  7.94793070E-06 -2.60044805E-06  1.53529652E-06
 -5.92688869E-05 -8.52698462E-05 -1.94658589E-05  6.22516413E-05 -1.71288195E-03
 -3.37802828E-04 -1.82769549E-04 -1.31328159E-04 -5.07292601E-06 -2.02578713E-06
 -3.63589116E-06 -1.83504463E-06 -1.76742595E-06 -2.89590613E-06  3.44176833E-05
  6.29317585E-05  4.45130482E-05  6.62965849E-06  6.89592038E-08  6.42440214E-06
  1.21728998E-05 -8.11671837E-05  8.25004869E-05  2.14961925E-04  7.90698713E-06
  1.31287393E-05 -1.07920841E-05  2.52670945E-06 -2.25888605E-05 -4.53893529E-05
 -1.17495982E-04 -1.01352719E-06 -2.84219006E-07  1.27589808E-06  5.74024055E-06
 -3.44810677E-05  6.38736922E-05  1.45272733E-04 -1.08559316E-05  2.09583785E-06
  1.34188511E-05 -9.93896027E-07 -6.13805734E-05 -1.09102366E-04  1.23651838E-04
 -6.15051597E-06  2.06018237E-06 -1.55562957E-05  1.02352712E-05 -6.19014799E-05
  8.89341967E-07  9.08446442E-05 -4.90525397E-06  1.19550915E-05  1.43834695E-05
 -7.57591178E-06  3.18237864E-05 -1.23184882E-04 -3.04552268E-04 -1.13498676E-06
 -3.79693590E-06 -7.83918919E-07  4.11609639E-01  6.54076260E-01  1.50035286E-02