(R)-3-chloro-1-butene tau=120                                           
SP        RB3LYP                                                      6-311++G(d,p)       
Number of atoms                            I               12
Info1-9                                    I   N=           9
          26          26           0           0           0         110
           1          18        -502
Full Title                                 C   N=           3
(R)-3-chloro-1-butene tau=120       
Route                                      C   N=           7
#P B3LYP/6-311++G** scf(conver=11) int=ultrafine polar=optro
t cphf(rdfreq,conver=11)
Charge                                     I                0
Multiplicity                               I                1
Number of electrons                        I               48
Number of alpha electrons                  I               24
Number of beta electrons                   I               24
Number of basis functions                  I              167
Number of independent functions            I              167
Number of point charges in /Mol/           I                0
Number of translation vectors              I                0
Atomic numbers                             I   N=          12
           6           6           6           6           1           1
           1           1           1           1           1          17
Nuclear charges                            R   N=          12
  6.00000000E+00  6.00000000E+00  6.00000000E+00  6.00000000E+00  1.00000000E+00
  1.00000000E+00  1.00000000E+00  1.00000000E+00  1.00000000E+00  1.00000000E+00
  1.00000000E+00  1.70000000E+01
Current cartesian coordinates              R   N=          36
  8.89601498E-01  3.28684445E+00  7.29596469E-02  5.07071921E-02  6.40213825E-01
 -5.89980715E-01 -2.29904825E+00 -1.19613436E-01  7.99942506E-01 -4.41056277E+00
 -9.37633102E-01 -2.95727509E-01 -4.65627327E+00 -9.24744044E-01 -2.33676239E+00
  2.58046783E+00  3.84834641E+00 -9.66449404E-01 -5.96923502E+00 -1.67452629E+00
  8.29382776E-01 -2.13008975E+00 -1.74162906E-01  2.85151316E+00 -2.50384667E-01
  4.66384207E-01 -2.61935491E+00  1.25867603E+00  3.47607241E+00  2.09577309E+00
 -6.52152257E-01  4.57505809E+00 -4.25709940E-01  2.61381206E+00 -1.57713519E+00
  3.81437673E-02
Number of symbols in /Mol/                 I                0
Force Field                                I                0
Atom Types                                 C   N=          12
                                                            
                                                            
                        
Int Atom Types                             I   N=          12
           0           0           0           0           0           0
           0           0           0           0           0           0
MM charges                                 R   N=          12
  0.00000000E+00  0.00000000E+00  0.00000000E+00  0.00000000E+00  0.00000000E+00
  0.00000000E+00  0.00000000E+00  0.00000000E+00  0.00000000E+00  0.00000000E+00
  0.00000000E+00  0.00000000E+00
Integer atomic weights                     I   N=          12
          12          12          12          12           1           1
           1           1           1           1           1          35
Real atomic weights                        R   N=          12
  1.20000000E+01  1.20000000E+01  1.20000000E+01  1.20000000E+01  1.00782504E+00
  1.00782504E+00  1.00782504E+00  1.00782504E+00  1.00782504E+00  1.00782504E+00
  1.00782504E+00  3.49688527E+01
Atom fragment info                         I   N=          12
           0           0           0           0           0           0
           0           0           0           0           0           0
Atom residue num                           I   N=          12
           0           0           0           0           0           0
           0           0           0           0           0           0
Nuclear spins                              I   N=          12
           0           0           0           0           1           1
           1           1           1           1           1           3
Nuclear ZEff                               R   N=          12
 -3.60000000E+00 -3.60000000E+00 -3.60000000E+00 -3.60000000E+00 -1.00000000E+00
 -1.00000000E+00 -1.00000000E+00 -1.00000000E+00 -1.00000000E+00 -1.00000000E+00
 -1.00000000E+00 -1.42400000E+01
Nuclear ZNuc                               R   N=          12
  6.00000000E+00  6.00000000E+00  6.00000000E+00  6.00000000E+00  1.00000000E+00
  1.00000000E+00  1.00000000E+00  1.00000000E+00  1.00000000E+00  1.00000000E+00
  1.00000000E+00  1.70000000E+01
Nuclear QMom                               R   N=          12
  0.00000000E+00  0.00000000E+00  0.00000000E+00  0.00000000E+00  0.00000000E+00
  0.00000000E+00  0.00000000E+00  0.00000000E+00  0.00000000E+00  0.00000000E+00
  0.00000000E+00 -8.16500000E+00
Nuclear GFac                               R   N=          12
  0.00000000E+00  0.00000000E+00  0.00000000E+00  0.00000000E+00  2.79284600E+00
  2.79284600E+00  2.79284600E+00  2.79284600E+00  2.79284600E+00  2.79284600E+00
  2.79284600E+00  8.21874000E-01
MicOpt                                     I   N=          12
          -1          -1          -1          -1          -1          -1
          -1          -1          -1          -1          -1          -1
Number of residues                         I                0
Number of secondary structures             I                0
SymInf integers                            I   N=          26
           1           1           1           1           1           0
           0           0           0           0           0           0
           0           0           0           0           0           0
           0           0           0           0           0           0
           0           0
RotTr to input orientation                 R   N=          12
  9.99998837E-01  1.52515880E-03  0.00000000E+00 -1.52515880E-03  9.99998837E-01
  0.00000000E+00  0.00000000E+00  0.00000000E+00  1.00000000E+00 -4.34969287E-04
 -2.40693551E-03  1.69050569E-04
Number of contracted shells                I               72
Number of primitive shells                 I              126
Pure/Cartesian d shells                    I                0
Pure/Cartesian f shells                    I                0
Highest angular momentum                   I                2
Largest degree of contraction              I                6
Shell types                                I   N=          72
           0          -1          -1          -1          -1          -2
           0          -1          -1          -1          -1          -2
           0          -1          -1          -1          -1          -2
           0          -1          -1          -1          -1          -2
           0           0           0           0           1           0
           0           0           0           1           0           0
           0           0           1           0           0           0
           0           1           0           0           0           0
           1           0           0           0           0           1
           0           0           0           0           1           0
           0           0           0           0           0          -1
           1           1           1           1           1          -2
Number of primitives per shell             I   N=          72
           6           3           1           1           1           1
           6           3           1           1           1           1
           6           3           1           1           1           1
           6           3           1           1           1           1
           3           1           1           1           1           3
           1           1           1           1           3           1
           1           1           1           3           1           1
           1           1           3           1           1           1
           1           3           1           1           1           1
           3           1           1           1           1           6
           3           1           1           1           1           1
           5           2           1           1           1           1
Shell to atom map                          I   N=          72
           1           1           1           1           1           1
           2           2           2           2           2           2
           3           3           3           3           3           3
           4           4           4           4           4           4
           5           5           5           5           5           6
           6           6           6           6           7           7
           7           7           7           8           8           8
           8           8           9           9           9           9
           9          10          10          10          10          10
          11          11          11          11          11          12
          12          12          12          12          12          12
          12          12          12          12          12          12
Primitive exponents                        R   N=         126
  4.56324000E+03  6.82024000E+02  1.54973000E+02  4.44553000E+01  1.30290000E+01
  1.82773000E+00  2.09642000E+01  4.80331000E+00  1.45933000E+00  4.83456000E-01
  1.45585000E-01  4.38000000E-02  6.26000000E-01  4.56324000E+03  6.82024000E+02
  1.54973000E+02  4.44553000E+01  1.30290000E+01  1.82773000E+00  2.09642000E+01
  4.80331000E+00  1.45933000E+00  4.83456000E-01  1.45585000E-01  4.38000000E-02
  6.26000000E-01  4.56324000E+03  6.82024000E+02  1.54973000E+02  4.44553000E+01
  1.30290000E+01  1.82773000E+00  2.09642000E+01  4.80331000E+00  1.45933000E+00
  4.83456000E-01  1.45585000E-01  4.38000000E-02  6.26000000E-01  4.56324000E+03
  6.82024000E+02  1.54973000E+02  4.44553000E+01  1.30290000E+01  1.82773000E+00
  2.09642000E+01  4.80331000E+00  1.45933000E+00  4.83456000E-01  1.45585000E-01
  4.38000000E-02  6.26000000E-01  3.38650000E+01  5.09479000E+00  1.15879000E+00
  3.25840000E-01  1.02741000E-01  3.60000000E-02  7.50000000E-01  3.38650000E+01
  5.09479000E+00  1.15879000E+00  3.25840000E-01  1.02741000E-01  3.60000000E-02
  7.50000000E-01  3.38650000E+01  5.09479000E+00  1.15879000E+00  3.25840000E-01
  1.02741000E-01  3.60000000E-02  7.50000000E-01  3.38650000E+01  5.09479000E+00
  1.15879000E+00  3.25840000E-01  1.02741000E-01  3.60000000E-02  7.50000000E-01
  3.38650000E+01  5.09479000E+00  1.15879000E+00  3.25840000E-01  1.02741000E-01
  3.60000000E-02  7.50000000E-01  3.38650000E+01  5.09479000E+00  1.15879000E+00
  3.25840000E-01  1.02741000E-01  3.60000000E-02  7.50000000E-01  3.38650000E+01
  5.09479000E+00  1.15879000E+00  3.25840000E-01  1.02741000E-01  3.60000000E-02
  7.50000000E-01  1.05819000E+05  1.58720000E+04  3.61965000E+03  1.03080000E+03
  3.39908000E+02  1.24538000E+02  1.24538000E+02  4.95135000E+01  2.08056000E+01
  6.58346000E+00  2.56468000E+00  5.59763000E-01  1.83273000E-01  4.83000000E-02
  5.89776000E+02  1.39849000E+02  4.51413000E+01  1.68733000E+01  2.77152000E+00
  6.74110000E+00  2.77152000E+00  1.02387000E+00  3.81368000E-01  1.09437000E-01
  7.50000000E-01
Contraction coefficients                   R   N=         126
  1.96665025E-03  1.52306019E-02  7.61269097E-02  2.60801033E-01  6.16462078E-01
  2.21006028E-01  1.14660081E-01  9.19999648E-01 -3.03068213E-03  1.00000000E+00
  1.00000000E+00  1.00000000E+00  1.00000000E+00  1.96665025E-03  1.52306019E-02
  7.61269097E-02  2.60801033E-01  6.16462078E-01  2.21006028E-01  1.14660081E-01
  9.19999648E-01 -3.03068213E-03  1.00000000E+00  1.00000000E+00  1.00000000E+00
  1.00000000E+00  1.96665025E-03  1.52306019E-02  7.61269097E-02  2.60801033E-01
  6.16462078E-01  2.21006028E-01  1.14660081E-01  9.19999648E-01 -3.03068213E-03
  1.00000000E+00  1.00000000E+00  1.00000000E+00  1.00000000E+00  1.96665025E-03
  1.52306019E-02  7.61269097E-02  2.60801033E-01  6.16462078E-01  2.21006028E-01
  1.14660081E-01  9.19999648E-01 -3.03068213E-03  1.00000000E+00  1.00000000E+00
  1.00000000E+00  1.00000000E+00  2.54938145E-02  1.90373109E-01  8.52161486E-01
  1.00000000E+00  1.00000000E+00  1.00000000E+00  1.00000000E+00  2.54938145E-02
  1.90373109E-01  8.52161486E-01  1.00000000E+00  1.00000000E+00  1.00000000E+00
  1.00000000E+00  2.54938145E-02  1.90373109E-01  8.52161486E-01  1.00000000E+00
  1.00000000E+00  1.00000000E+00  1.00000000E+00  2.54938145E-02  1.90373109E-01
  8.52161486E-01  1.00000000E+00  1.00000000E+00  1.00000000E+00  1.00000000E+00
  2.54938145E-02  1.90373109E-01  8.52161486E-01  1.00000000E+00  1.00000000E+00
  1.00000000E+00  1.00000000E+00  2.54938145E-02  1.90373109E-01  8.52161486E-01
  1.00000000E+00  1.00000000E+00  1.00000000E+00  1.00000000E+00  2.54938145E-02
  1.90373109E-01  8.52161486E-01  1.00000000E+00  1.00000000E+00  1.00000000E+00
  1.00000000E+00  7.38000247E-04  5.71800191E-03  2.94950099E-02  1.17286039E-01
  3.62949121E-01  5.84149195E-01  1.34176973E-01  6.24249876E-01  2.91755942E-01
  1.00000000E+00  1.00000000E+00  1.00000000E+00  1.00000000E+00  1.00000000E+00
  3.66556935E-03  2.83679194E-02  1.24756603E-01  3.39654631E-01  7.47585963E-01
 -1.57224381E+00  9.92388882E-01  1.00000000E+00  1.00000000E+00  1.00000000E+00
  1.00000000E+00
P(S=P) Contraction coefficients            R   N=         126
  0.00000000E+00  0.00000000E+00  0.00000000E+00  0.00000000E+00  0.00000000E+00
  0.00000000E+00  4.02486927E-02  2.37593957E-01  8.15853851E-01  1.00000000E+00
  1.00000000E+00  1.00000000E+00  0.00000000E+00  0.00000000E+00  0.00000000E+00
  0.00000000E+00  0.00000000E+00  0.00000000E+00  0.00000000E+00  4.02486927E-02
  2.37593957E-01  8.15853851E-01  1.00000000E+00  1.00000000E+00  1.00000000E+00
  0.00000000E+00  0.00000000E+00  0.00000000E+00  0.00000000E+00  0.00000000E+00
  0.00000000E+00  0.00000000E+00  4.02486927E-02  2.37593957E-01  8.15853851E-01
  1.00000000E+00  1.00000000E+00  1.00000000E+00  0.00000000E+00  0.00000000E+00
  0.00000000E+00  0.00000000E+00  0.00000000E+00  0.00000000E+00  0.00000000E+00
  4.02486927E-02  2.37593957E-01  8.15853851E-01  1.00000000E+00  1.00000000E+00
  1.00000000E+00  0.00000000E+00  0.00000000E+00  0.00000000E+00  0.00000000E+00
  0.00000000E+00  0.00000000E+00  0.00000000E+00  0.00000000E+00  0.00000000E+00
  0.00000000E+00  0.00000000E+00  0.00000000E+00  0.00000000E+00  0.00000000E+00
  0.00000000E+00  0.00000000E+00  0.00000000E+00  0.00000000E+00  0.00000000E+00
  0.00000000E+00  0.00000000E+00  0.00000000E+00  0.00000000E+00  0.00000000E+00
  0.00000000E+00  0.00000000E+00  0.00000000E+00  0.00000000E+00  0.00000000E+00
  0.00000000E+00  0.00000000E+00  0.00000000E+00  0.00000000E+00  0.00000000E+00
  0.00000000E+00  0.00000000E+00  0.00000000E+00  0.00000000E+00  0.00000000E+00
  0.00000000E+00  0.00000000E+00  0.00000000E+00  0.00000000E+00  0.00000000E+00
  0.00000000E+00  0.00000000E+00  0.00000000E+00  0.00000000E+00  0.00000000E+00
  0.00000000E+00  0.00000000E+00  0.00000000E+00  0.00000000E+00  0.00000000E+00
  0.00000000E+00  0.00000000E+00  0.00000000E+00  0.00000000E+00  0.00000000E+00
  0.00000000E+00  0.00000000E+00  0.00000000E+00  0.00000000E+00  1.00000000E+00
  0.00000000E+00  0.00000000E+00  0.00000000E+00  0.00000000E+00  0.00000000E+00
  0.00000000E+00  0.00000000E+00  0.00000000E+00  0.00000000E+00  0.00000000E+00
  0.00000000E+00
Coordinates of each shell                  R   N=         216
  8.89601498E-01  3.28684445E+00  7.29596469E-02  8.89601498E-01  3.28684445E+00
  7.29596469E-02  8.89601498E-01  3.28684445E+00  7.29596469E-02  8.89601498E-01
  3.28684445E+00  7.29596469E-02  8.89601498E-01  3.28684445E+00  7.29596469E-02
  8.89601498E-01  3.28684445E+00  7.29596469E-02  5.07071921E-02  6.40213825E-01
 -5.89980715E-01  5.07071921E-02  6.40213825E-01 -5.89980715E-01  5.07071921E-02
  6.40213825E-01 -5.89980715E-01  5.07071921E-02  6.40213825E-01 -5.89980715E-01
  5.07071921E-02  6.40213825E-01 -5.89980715E-01  5.07071921E-02  6.40213825E-01
 -5.89980715E-01 -2.29904825E+00 -1.19613436E-01  7.99942506E-01 -2.29904825E+00
 -1.19613436E-01  7.99942506E-01 -2.29904825E+00 -1.19613436E-01  7.99942506E-01
 -2.29904825E+00 -1.19613436E-01  7.99942506E-01 -2.29904825E+00 -1.19613436E-01
  7.99942506E-01 -2.29904825E+00 -1.19613436E-01  7.99942506E-01 -4.41056277E+00
 -9.37633102E-01 -2.95727509E-01 -4.41056277E+00 -9.37633102E-01 -2.95727509E-01
 -4.41056277E+00 -9.37633102E-01 -2.95727509E-01 -4.41056277E+00 -9.37633102E-01
 -2.95727509E-01 -4.41056277E+00 -9.37633102E-01 -2.95727509E-01 -4.41056277E+00
 -9.37633102E-01 -2.95727509E-01 -4.65627327E+00 -9.24744044E-01 -2.33676239E+00
 -4.65627327E+00 -9.24744044E-01 -2.33676239E+00 -4.65627327E+00 -9.24744044E-01
 -2.33676239E+00 -4.65627327E+00 -9.24744044E-01 -2.33676239E+00 -4.65627327E+00
 -9.24744044E-01 -2.33676239E+00  2.58046783E+00  3.84834641E+00 -9.66449404E-01
  2.58046783E+00  3.84834641E+00 -9.66449404E-01  2.58046783E+00  3.84834641E+00
 -9.66449404E-01  2.58046783E+00  3.84834641E+00 -9.66449404E-01  2.58046783E+00
  3.84834641E+00 -9.66449404E-01 -5.96923502E+00 -1.67452629E+00  8.29382776E-01
 -5.96923502E+00 -1.67452629E+00  8.29382776E-01 -5.96923502E+00 -1.67452629E+00
  8.29382776E-01 -5.96923502E+00 -1.67452629E+00  8.29382776E-01 -5.96923502E+00
 -1.67452629E+00  8.29382776E-01 -2.13008975E+00 -1.74162906E-01  2.85151316E+00
 -2.13008975E+00 -1.74162906E-01  2.85151316E+00 -2.13008975E+00 -1.74162906E-01
  2.85151316E+00 -2.13008975E+00 -1.74162906E-01  2.85151316E+00 -2.13008975E+00
 -1.74162906E-01  2.85151316E+00 -2.50384667E-01  4.66384207E-01 -2.61935491E+00
 -2.50384667E-01  4.66384207E-01 -2.61935491E+00 -2.50384667E-01  4.66384207E-01
 -2.61935491E+00 -2.50384667E-01  4.66384207E-01 -2.61935491E+00 -2.50384667E-01
  4.66384207E-01 -2.61935491E+00  1.25867603E+00  3.47607241E+00  2.09577309E+00
  1.25867603E+00  3.47607241E+00  2.09577309E+00  1.25867603E+00  3.47607241E+00
  2.09577309E+00  1.25867603E+00  3.47607241E+00  2.09577309E+00  1.25867603E+00
  3.47607241E+00  2.09577309E+00 -6.52152257E-01  4.57505809E+00 -4.25709940E-01
 -6.52152257E-01  4.57505809E+00 -4.25709940E-01 -6.52152257E-01  4.57505809E+00
 -4.25709940E-01 -6.52152257E-01  4.57505809E+00 -4.25709940E-01 -6.52152257E-01
  4.57505809E+00 -4.25709940E-01  2.61381206E+00 -1.57713519E+00  3.81437673E-02
  2.61381206E+00 -1.57713519E+00  3.81437673E-02  2.61381206E+00 -1.57713519E+00
  3.81437673E-02  2.61381206E+00 -1.57713519E+00  3.81437673E-02  2.61381206E+00
 -1.57713519E+00  3.81437673E-02  2.61381206E+00 -1.57713519E+00  3.81437673E-02
  2.61381206E+00 -1.57713519E+00  3.81437673E-02  2.61381206E+00 -1.57713519E+00
  3.81437673E-02  2.61381206E+00 -1.57713519E+00  3.81437673E-02  2.61381206E+00
 -1.57713519E+00  3.81437673E-02  2.61381206E+00 -1.57713519E+00  3.81437673E-02
  2.61381206E+00 -1.57713519E+00  3.81437673E-02  2.61381206E+00 -1.57713519E+00
  3.81437673E-02
Constraint Structure                       R   N=          36
  8.89601498E-01  3.28684445E+00  7.29596469E-02  5.07071921E-02  6.40213825E-01
 -5.89980715E-01 -2.29904825E+00 -1.19613436E-01  7.99942506E-01 -4.41056277E+00
 -9.37633102E-01 -2.95727509E-01 -4.65627327E+00 -9.24744044E-01 -2.33676239E+00
  2.58046783E+00  3.84834641E+00 -9.66449404E-01 -5.96923502E+00 -1.67452629E+00
  8.29382776E-01 -2.13008975E+00 -1.74162906E-01  2.85151316E+00 -2.50384667E-01
  4.66384207E-01 -2.61935491E+00  1.25867603E+00  3.47607241E+00  2.09577309E+00
 -6.52152257E-01  4.57505809E+00 -4.25709940E-01  2.61381206E+00 -1.57713519E+00
  3.81437673E-02
Num ILSW                                   I              100
ILSW                                       I   N=         100
           0           0           0           0           2           0
           0           0           0           0         402          -1
           5           0           0           0           0           0
           0           0           0           0           0           0
           1           0           0           0           0           0
           0           0      100000           0          -1           0
           0           0           0           0           0           0
           0           0           0           1           0           0
           0           0           1           0           0           0
           0           0           4          41           0           0
           0           0           5           0           0           0
           0           0           0           0           0           0
           0           0           0           0           0           0
           0           0           0           0           0           0
           0           0           0           0           0           0
           0           0           0           0           0           0
           0           0           0           0
Num RLSW                                   I               41
RLSW                                       R   N=          41
  8.00000000E-01  7.20000000E-01  1.00000000E+00  8.10000000E-01  2.00000000E-01
  0.00000000E+00  0.00000000E+00  1.00000000E+00  0.00000000E+00  0.00000000E+00
  0.00000000E+00  0.00000000E+00  1.00000000E+00  0.00000000E+00  0.00000000E+00
  0.00000000E+00  0.00000000E+00  1.00000000E+00  0.00000000E+00  0.00000000E+00
  0.00000000E+00  0.00000000E+00  1.00000000E+00  0.00000000E+00  0.00000000E+00
  0.00000000E+00  0.00000000E+00  1.00000000E+00  0.00000000E+00  0.00000000E+00
  0.00000000E+00  0.00000000E+00  0.00000000E+00  0.00000000E+00  0.00000000E+00
  0.00000000E+00  0.00000000E+00  0.00000000E+00  1.00000000E+00  1.00000000E+00
  0.00000000E+00
MxBond                                     I                4
NBond                                      I   N=          12
           4           4           3           3           1           1
           1           1           1           1           1           1
IBond                                      I   N=          48
           2           6          10          11           1           3
           9          12           2           4           8           0
           3           5           7           0           4           0
           0           0           1           0           0           0
           4           0           0           0           3           0
           0           0           2           0           0           0
           1           0           0           0           1           0
           0           0           2           0           0           0
RBond                                      R   N=          48
  1.00000000E+00  1.00000000E+00  1.00000000E+00  1.00000000E+00  1.00000000E+00
  1.00000000E+00  1.00000000E+00  1.00000000E+00  1.00000000E+00  2.00000000E+00
  1.00000000E+00  0.00000000E+00  2.00000000E+00  1.00000000E+00  1.00000000E+00
  0.00000000E+00  1.00000000E+00  0.00000000E+00  0.00000000E+00  0.00000000E+00
  1.00000000E+00  0.00000000E+00  0.00000000E+00  0.00000000E+00  1.00000000E+00
  0.00000000E+00  0.00000000E+00  0.00000000E+00  1.00000000E+00  0.00000000E+00
  0.00000000E+00  0.00000000E+00  1.00000000E+00  0.00000000E+00  0.00000000E+00
  0.00000000E+00  1.00000000E+00  0.00000000E+00  0.00000000E+00  0.00000000E+00
  1.00000000E+00  0.00000000E+00  0.00000000E+00  0.00000000E+00  1.00000000E+00
  0.00000000E+00  0.00000000E+00  0.00000000E+00
Virial Ratio                               R      2.003010363306449E+00
SCF Energy                                 R     -6.168940543975240E+02
Total Energy                               R     -6.168940543975240E+02
RMS Density                                R      7.696307688426659E-12
Nuclear derivative order                   I                0
External E-field                           R   N=          35
  0.00000000E+00  0.00000000E+00  0.00000000E+00  0.00000000E+00  0.00000000E+00
  0.00000000E+00  0.00000000E+00  0.00000000E+00  0.00000000E+00  0.00000000E+00
  0.00000000E+00  0.00000000E+00  0.00000000E+00  0.00000000E+00  0.00000000E+00
  0.00000000E+00  0.00000000E+00  0.00000000E+00  0.00000000E+00  0.00000000E+00
  0.00000000E+00  0.00000000E+00  0.00000000E+00  0.00000000E+00  0.00000000E+00
  0.00000000E+00  0.00000000E+00  0.00000000E+00  0.00000000E+00  0.00000000E+00
  0.00000000E+00  0.00000000E+00  0.00000000E+00  0.00000000E+00  0.00000000E+00
IOpCl                                      I                0
IROHF                                      I                0
Alpha Orbital Energies                     R   N=         167
 -1.01536655E+02 -1.02448182E+01 -1.01933765E+01 -1.01844249E+01 -1.01789493E+01
 -9.45139554E+00 -7.21575896E+00 -7.20626340E+00 -7.20608886E+00 -8.72449609E-01
 -7.87959113E-01 -7.43030078E-01 -6.37684937E-01 -5.76513530E-01 -4.85713159E-01
 -4.76586092E-01 -4.45592340E-01 -4.17888023E-01 -4.02495327E-01 -3.74737046E-01
 -3.66894267E-01 -3.05322037E-01 -2.99326715E-01 -2.81603408E-01 -3.19716946E-02
 -7.05236986E-03  6.87943694E-03  7.56482914E-03  2.52195688E-02  2.86953483E-02
  3.84526120E-02  4.13170250E-02  6.41328709E-02  6.51357777E-02  7.27044840E-02
  8.38769189E-02  8.77774131E-02  1.00119844E-01  1.11608726E-01  1.16081712E-01
  1.17957000E-01  1.21906264E-01  1.28794178E-01  1.30978837E-01  1.35601326E-01
  1.41985948E-01  1.49268419E-01  1.57016987E-01  1.61563899E-01  1.65701505E-01
  1.71988281E-01  1.86848671E-01  1.90109864E-01  2.15040552E-01  2.22141336E-01
  2.26041071E-01  2.51452595E-01  2.61740759E-01  2.69633743E-01  2.93860687E-01
  3.42076579E-01  3.56659673E-01  3.88994131E-01  4.24840959E-01  4.29873322E-01
  4.49426895E-01  4.59442713E-01  4.80588374E-01  4.87335718E-01  4.93385089E-01
  5.20379711E-01  5.30448813E-01  5.67266776E-01  5.89210086E-01  6.03116554E-01
  6.28022422E-01  6.36493919E-01  6.47202504E-01  6.56699627E-01  6.64282276E-01
  6.92374019E-01  7.13742865E-01  7.32710430E-01  7.37829868E-01  7.96858578E-01
  8.07352959E-01  8.31118748E-01  8.61419658E-01  8.92355759E-01  9.05306510E-01
  9.38601281E-01  9.50136313E-01  1.00158279E+00  1.02132330E+00  1.07417531E+00
  1.09188979E+00  1.12544405E+00  1.18740862E+00  1.19961552E+00  1.29683891E+00
  1.40490906E+00  1.42730764E+00  1.45014713E+00  1.46982068E+00  1.50072328E+00
  1.53819622E+00  1.56303639E+00  1.59013272E+00  1.60323741E+00  1.62165514E+00
  1.67198068E+00  1.69668340E+00  1.70501952E+00  1.73681163E+00  1.77087358E+00
  1.78615393E+00  1.86857279E+00  1.89117231E+00  1.93946629E+00  1.99591162E+00
  2.00892999E+00  2.07916956E+00  2.11998950E+00  2.16783570E+00  2.19325360E+00
  2.20402218E+00  2.25555576E+00  2.29987539E+00  2.31170046E+00  2.36078237E+00
  2.37755336E+00  2.45705217E+00  2.46309030E+00  2.49946928E+00  2.52860910E+00
  2.56292215E+00  2.57367687E+00  2.59333365E+00  2.60625005E+00  2.65893583E+00
  2.72621049E+00  2.73640066E+00  2.75566131E+00  2.77178576E+00  2.85484044E+00
  2.86667664E+00  2.94218300E+00  3.07447302E+00  3.08697489E+00  3.20013419E+00
  3.41316742E+00  3.51142585E+00  3.71079011E+00  3.79494828E+00  3.80087903E+00
  3.94890694E+00  4.12559802E+00  4.29091628E+00  9.75827219E+00  2.37190060E+01
  2.37907197E+01  2.39490819E+01  2.42502345E+01  2.59330423E+01  2.59710099E+01
  2.64544104E+01  2.15748092E+02
Alpha MO coefficients                      R   N=       27889
  4.80691053E-08 -2.74655088E-08 -2.97529423E-06 -3.01474959E-06 -1.32618529E-06
 -6.19480543E-08  2.08172214E-05  1.99921764E-05  9.32858203E-06  1.04100354E-05
  2.79879456E-05  3.08986045E-05  2.22067137E-05 -1.62558112E-03 -1.53063175E-04
  4.63301135E-04  6.83652014E-05  7.85966760E-06 -3.43988276E-06 -5.32858531E-06
  1.39318650E-05  5.73645477E-08  1.41665370E-06 -2.78973362E-06  1.47671633E-05
 -1.45173950E-05  5.11250924E-06 -1.54218637E-05 -2.04210918E-05  2.64390627E-05
 -1.73446409E-05  2.00430778E-04  1.39456403E-04 -1.32476284E-04 -4.63550414E-06
  3.58045475E-03 -5.61614450E-04  5.05358363E-04  7.11562707E-04  1.10202169E-05
 -3.29613436E-06  3.96376818E-06 -3.63752065E-06  1.31705261E-05 -7.25603505E-07
  2.11626502E-06  4.78446157E-06 -2.28099583E-06 -4.63454619E-06 -8.95407286E-06
 -2.58487666E-05  7.98725665E-06  2.68524271E-05  3.55129496E-05 -2.72684296E-06
 -7.78170878E-06 -6.29354423E-05 -1.21255910E-03 -1.13126742E-03 -3.44858039E-04
 -6.62936796E-05  7.95052034E-06  7.52614268E-06 -7.04852178E-06 -1.10555308E-06
 -3.84226020E-06  2.75923032E-07 -8.23853845E-07 -1.70754974E-06  6.12480876E-07
  6.63685530E-07  9.46292461E-06  8.95203509E-06 -2.22884284E-06  1.32670479E-06
 -7.02005409E-05 -8.62311892E-05 -2.84013936E-05  5.06239645E-05 -1.46957544E-03
 -3.08720078E-04 -1.97665522E-04 -7.60423914E-05 -4.39655706E-06 -1.46654518E-06
 -2.48179746E-06 -2.15792988E-06 -2.20482286E-06 -3.24601328E-06  3.27191551E-05
  5.37332347E-05  7.42984125E-05  7.18958052E-06 -7.22569415E-08  5.97524644E-06
  1.19891711E-05 -8.20007389E-05  8.73720338E-05  2.46805804E-04  8.31057279E-06
  1.32440219E-05 -1.09286543E-05  1.05839643E-06 -1.31174599E-05 -6.32227044E-05
 -1.56234993E-04  4.05372192E-07 -7.30361818E-07  1.21794961E-06  4.46108667E-06
 -3.36263702E-05  5.79870924E-05  1.27271640E-04 -9.75531695E-06  1.64419110E-06
  1.42035512E-05 -2.86126928E-06 -5.60656864E-05 -1.38754879E-04  4.94117448E-05
 -5.53976198E-06  1.19075667E-06 -1.56136298E-05  9.62702195E-06 -6.05045581E-05
 -2.07690307E-05  5.55189377E-05 -4.51779744E-06  1.19530892E-05  1.48679347E-05
 -7.79478589E-06  3.66534575E-05 -1.35394342E-04 -2.88938664E-04  4.98854999E-08
 -5.38919791E-06 -9.41966406E-07  4.11609529E-01  6.54075892E-01  1.50054343E-02