 Entering Gaussian System, Link 0=g09
 Input=input.dat
 Output=output.dat
 Initial command:
 /cerebro/home/software/apps/g09/l1.exe /scratch/crawdad/Gau-10042.inp -scrdir=/scratch/crawdad/
 Entering Link 1 = /cerebro/home/software/apps/g09/l1.exe PID=     10044.
  
 Copyright (c) 1988,1990,1992,1993,1995,1998,2003,2009, Gaussian, Inc.
                  All Rights Reserved.
  
 This is part of the Gaussian(R) 09 program.  It is based on
 the Gaussian(R) 03 system (copyright 2003, Gaussian, Inc.),
 the Gaussian(R) 98 system (copyright 1998, Gaussian, Inc.),
 the Gaussian(R) 94 system (copyright 1995, Gaussian, Inc.),
 the Gaussian 92(TM) system (copyright 1992, Gaussian, Inc.),
 the Gaussian 90(TM) system (copyright 1990, Gaussian, Inc.),
 the Gaussian 88(TM) system (copyright 1988, Gaussian, Inc.),
 the Gaussian 86(TM) system (copyright 1986, Carnegie Mellon
 University), and the Gaussian 82(TM) system (copyright 1983,
 Carnegie Mellon University). Gaussian is a federally registered
 trademark of Gaussian, Inc.
  
 This software contains proprietary and confidential information,
 including trade secrets, belonging to Gaussian, Inc.
  
 This software is provided under written license and may be
 used, copied, transmitted, or stored only in accord with that
 written license.
  
 The following legend is applicable only to US Government
 contracts under FAR:
  
                    RESTRICTED RIGHTS LEGEND
  
 Use, reproduction and disclosure by the US Government is
 subject to restrictions as set forth in subparagraphs (a)
 and (c) of the Commercial Computer Software - Restricted
 Rights clause in FAR 52.227-19.
  
 Gaussian, Inc.
 340 Quinnipiac St., Bldg. 40, Wallingford CT 06492
  
  
 ---------------------------------------------------------------
 Warning -- This program may not be used in any manner that
 competes with the business of Gaussian, Inc. or will provide
 assistance to any competitor of Gaussian, Inc.  The licensee
 of this program is prohibited from giving any competitor of
 Gaussian, Inc. access to this program.  By using this program,
 the user acknowledges that Gaussian, Inc. is engaged in the
 business of creating and licensing software in the field of
 computational chemistry and represents and warrants to the
 licensee that it is not a competitor of Gaussian, Inc. and that
 it will not use this program in any manner prohibited above.
 ---------------------------------------------------------------
  

 Cite this work as:
 Gaussian 09, Revision A.02,
 M. J. Frisch, G. W. Trucks, H. B. Schlegel, G. E. Scuseria, 
 M. A. Robb, J. R. Cheeseman, G. Scalmani, V. Barone, B. Mennucci, 
 G. A. Petersson, H. Nakatsuji, M. Caricato, X. Li, H. P. Hratchian, 
 A. F. Izmaylov, J. Bloino, G. Zheng, J. L. Sonnenberg, M. Hada, 
 M. Ehara, K. Toyota, R. Fukuda, J. Hasegawa, M. Ishida, T. Nakajima, 
 Y. Honda, O. Kitao, H. Nakai, T. Vreven, J. A. Montgomery, Jr., 
 J. E. Peralta, F. Ogliaro, M. Bearpark, J. J. Heyd, E. Brothers, 
 K. N. Kudin, V. N. Staroverov, R. Kobayashi, J. Normand, 
 K. Raghavachari, A. Rendell, J. C. Burant, S. S. Iyengar, J. Tomasi, 
 M. Cossi, N. Rega, J. M. Millam, M. Klene, J. E. Knox, J. B. Cross, 
 V. Bakken, C. Adamo, J. Jaramillo, R. Gomperts, R. E. Stratmann, 
 O. Yazyev, A. J. Austin, R. Cammi, C. Pomelli, J. W. Ochterski, 
 R. L. Martin, K. Morokuma, V. G. Zakrzewski, G. A. Voth, 
 P. Salvador, J. J. Dannenberg, S. Dapprich, A. D. Daniels, 
 O. Farkas, J. B. Foresman, J. V. Ortiz, J. Cioslowski, 
 and D. J. Fox, Gaussian, Inc., Wallingford CT, 2009.
 
 ******************************************
 Gaussian 09:  EM64L-G09RevA.02 11-Jun-2009
                10-Jul-2013 
 ******************************************
 %chk=vibave
 %mem=1000mb
 %nproc=1
 Will use up to    1 processors via shared memory.
 ----------------------------------------------------------------------
 #P B3LYP/6-311++G** scf(conver=11) int=ultrafine polar=optrot cphf(rdf
 req,conver=11)
 ----------------------------------------------------------------------
 1/38=1,83=21/1;
 2/12=2,17=6,18=5,40=1/2;
 3/5=4,6=6,7=1111,11=2,16=1,25=1,30=1,36=2,74=-5,75=-5/1,2,3;
 4//1;
 5/5=2,6=11,38=5,96=-2,98=1/2;
 8/6=4,10=90,11=11/1;
 10/6=1,7=11,13=10,46=8,60=-2,72=3/2;
 6/7=2,8=2,9=2,10=2,28=1/1;
 99/5=1,9=1/99;
 Leave Link    1 at Wed Jul 10 16:50:08 2013, MaxMem=  131072000 cpu:       0.1
 (Enter /cerebro/home/software/apps/g09/l101.exe)
 -----------------------------
 (R)-3-chloro-1-butene tau=120
 -----------------------------
 Symbolic Z-matrix:
 Charge =  0 Multiplicity = 1
 C                     0.57084   1.80268   0.07399 
 C                     0.00446   0.44148  -0.31505 
 C                    -1.22253   0.03256   0.43063 
 C                    -2.22725  -0.70232  -0.15872 
 H                    -2.2128   -1.03065  -1.23483 
 H                     1.48142   2.02275  -0.48706 
 H                    -3.09441  -1.01028   0.41398 
 H                    -1.24671   0.32424   1.51383 
 H                    -0.16222   0.37239  -1.38947 
 H                     0.80741   1.83756   1.14105 
 H                    -0.17167   2.58224  -0.14334 
 Cl                    1.30437  -0.85736   0.00414 
 
 NAtoms=     12 NQM=     12 NQMF=      0 NMic=      0 NMicF=      0 NTot=     12.
                    Isotopes and Nuclear Properties:
 (Nuclear quadrupole moments (NQMom) in fm**2, nuclear magnetic moments (NMagM)
  in nuclear magnetons)

  Atom         1           2           3           4           5           6           7           8           9          10
 IAtWgt=          12          12          12          12           1           1           1           1           1           1
 AtmWgt=  12.0000000  12.0000000  12.0000000  12.0000000   1.0078250   1.0078250   1.0078250   1.0078250   1.0078250   1.0078250
 NucSpn=           0           0           0           0           1           1           1           1           1           1
 AtZEff=   0.0000000   0.0000000   0.0000000   0.0000000   0.0000000   0.0000000   0.0000000   0.0000000   0.0000000   0.0000000
 NQMom=    0.0000000   0.0000000   0.0000000   0.0000000   0.0000000   0.0000000   0.0000000   0.0000000   0.0000000   0.0000000
 NMagM=    0.0000000   0.0000000   0.0000000   0.0000000   2.7928460   2.7928460   2.7928460   2.7928460   2.7928460   2.7928460

  Atom        11          12
 IAtWgt=           1          35
 AtmWgt=   1.0078250  34.9688527
 NucSpn=           1           3
 AtZEff=   0.0000000   0.0000000
 NQMom=    0.0000000  -8.1650000
 NMagM=    2.7928460   0.8218740
 Using perturbation frequencies:    0.071980    0.077357    0.104503    0.128347
 Leave Link  101 at Wed Jul 10 16:50:09 2013, MaxMem=  131072000 cpu:       0.1
 (Enter /cerebro/home/software/apps/g09/l202.exe)
                          Input orientation:                          
 ---------------------------------------------------------------------
 Center     Atomic      Atomic             Coordinates (Angstroms)
 Number     Number       Type             X           Y           Z
 ---------------------------------------------------------------------
      1          6           0        0.570843    1.802679    0.073991
      2          6           0        0.004458    0.441485   -0.315047
      3          6           0       -1.222533    0.032558    0.430626
      4          6           0       -2.227246   -0.702316   -0.158725
      5          1           0       -2.212803   -1.030653   -1.234834
      6          1           0        1.481421    2.022752   -0.487064
      7          1           0       -3.094410   -1.010282    0.413979
      8          1           0       -1.246708    0.324238    1.513826
      9          1           0       -0.162222    0.372394   -1.389469
     10          1           0        0.807413    1.837562    1.141054
     11          1           0       -0.171667    2.582238   -0.143338
     12         17           0        1.304369   -0.857355    0.004143
 ---------------------------------------------------------------------
                    Distance matrix (angstroms):
                    1          2          3          4          5
     1  C    0.000000
     2  C    1.524792   0.000000
     3  C    2.544939   1.492902   0.000000
     4  C    3.762772   2.512611   1.377251   0.000000
     5  H    4.182042   2.815927   2.210160   1.125178   0.000000
     6  H    1.091956   2.170579   3.480574   4.613893   4.850745
     7  H    4.632755   3.498870   2.142829   1.083886   1.869822
     8  H    2.749983   2.218995   1.122045   2.193785   3.213130
     9  H    2.173664   1.089467   2.133657   2.633260   2.489445
    10  H    1.093529   2.171174   2.807744   4.165280   4.795123
    11  H    1.098301   2.154838   2.816846   3.874782   4.290755
    12  Cl   2.760204   1.865111   2.712760   3.538766   3.733041
                    6          7          8          9         10
     6  H    0.000000
     7  H    5.563219   0.000000
     8  H    3.785657   2.530733   0.000000
     9  H    2.497914   3.709710   3.099606   0.000000
    10  H    1.771822   4.884985   2.578473   3.080658   0.000000
    11  H    1.778727   4.664679   3.000079   2.536994   1.778428
    12  Cl   2.927055   4.420477   3.191129   2.367557   2.966835
                   11         12
    11  H    0.000000
    12  Cl   3.745829   0.000000
 Stoichiometry    C4H7Cl
 Framework group  C1[X(C4H7Cl)]
 Deg. of freedom    30
 Full point group                 C1      NOp   1
 Largest Abelian subgroup         C1      NOp   1
 Largest concise Abelian subgroup C1      NOp   1
                         Standard orientation:                         
 ---------------------------------------------------------------------
 Center     Atomic      Atomic             Coordinates (Angstroms)
 Number     Number       Type             X           Y           Z
 ---------------------------------------------------------------------
      1          6           0       -0.815118    1.706054    0.015919
      2          6           0       -0.062138    0.420220    0.339408
      3          6           0        1.214005    0.230784   -0.411810
      4          6           0        2.310581   -0.384508    0.150112
      5          1           0        2.338238   -0.769192    1.207126
      6          1           0       -1.750312    1.763794    0.576675
      7          1           0        3.215395   -0.534663   -0.427446
      8          1           0        1.201241    0.581004   -1.477722
      9          1           0        0.107817    0.317612    1.410634
     10          1           0       -1.049403    1.764518   -1.050618
     11          1           0       -0.192389    2.570383    0.283142
     12         17           0       -1.162033   -1.031103   -0.063739
 ---------------------------------------------------------------------
 Rotational constants (GHZ):      5.0305646      2.9605712      2.0315097
 Leave Link  202 at Wed Jul 10 16:50:09 2013, MaxMem=  131072000 cpu:       0.0
 (Enter /cerebro/home/software/apps/g09/l301.exe)
 Standard basis: 6-311++G(d,p) (5D, 7F)
 Ernie: Thresh=  0.10000D-02 Tol=  0.10000D-05 Strict=F.
 There are   167 symmetry adapted basis functions of A   symmetry.
 Integral buffers will be    131072 words long.
 Raffenetti 2 integral format.
 Two-electron integral symmetry is turned on.
   167 basis functions,   260 primitive gaussians,   172 cartesian basis functions
    24 alpha electrons       24 beta electrons
       nuclear repulsion energy       210.9034753165 Hartrees.
 IExCor=  402 DFT=T Ex+Corr=B3LYP ExCW=0 ScaHFX=  0.200000
 ScaDFX=  0.800000  0.720000  1.000000  0.810000 ScalE2=  1.000000  1.000000
 IRadAn=      5 IRanWt=     -1 IRanGd=            0 ICorTp=0
 NAtoms=   12 NActive=   12 NUniq=   12 SFac= 7.50D-01 NAtFMM=   80 NAOKFM=F Big=F
 Leave Link  301 at Wed Jul 10 16:50:09 2013, MaxMem=  131072000 cpu:       0.1
 (Enter /cerebro/home/software/apps/g09/l302.exe)
 NPDir=0 NMtPBC=     1 NCelOv=     1 NCel=       1 NClECP=     1 NCelD=      1
         NCelK=      1 NCelE2=     1 NClLst=     1 CellRange=     0.0.
 One-electron integrals computed using PRISM.
 NBasis=   167 RedAO= T  NBF=   167
 NBsUse=   167 1.00D-06 NBFU=   167
 Precomputing XC quadrature grid using
 IXCGrd= 2 IRadAn=           5 IRanWt=          -1 IRanGd=           0 AccXCQ= 1.00D-10.
 NRdTot=    1019 NPtTot=      274288 NUsed=      281590 NTot=      281622
 NSgBfM=   172   172   172   172   172 NAtAll=    12    12.
 Leave Link  302 at Wed Jul 10 16:50:10 2013, MaxMem=  131072000 cpu:       0.7
 (Enter /cerebro/home/software/apps/g09/l303.exe)
 DipDrv:  MaxL=2.
 Leave Link  303 at Wed Jul 10 16:50:10 2013, MaxMem=  131072000 cpu:       0.1
 (Enter /cerebro/home/software/apps/g09/l401.exe)
 Harris functional with IExCor=  402 diagonalized for initial guess.
 ExpMin= 3.60D-02 ExpMax= 1.06D+05 ExpMxC= 3.62D+03 IAcc=3 IRadAn=         5 AccDes= 0.00D+00
 HarFok:  IExCor=  402 AccDes= 0.00D+00 IRadAn=         5 IDoV= 1
 ScaDFX=  1.000000  1.000000  1.000000  1.000000
 FoFCou: FMM=F IPFlag=           0 FMFlag=      100000 FMFlg1=           0
         NFxFlg=           0 DoJE=T BraDBF=F KetDBF=T FulRan=T
         Omega=  0.000000  0.000000  1.000000  0.000000  0.000000 ICntrl=     500 IOpCl=  0
         NMat0=    1 NMatS0=    1 NMatT0=    0 NMatD0=    1 NMtDS0=    0 NMtDT0=    0
         I1Cent=           4 NGrid=           0.
 Petite list used in FoFCou.
 Harris En= -616.897710182486    
 Initial guess orbital symmetries:
       Occupied  (A) (A) (A) (A) (A) (A) (A) (A) (A) (A) (A) (A)
                 (A) (A) (A) (A) (A) (A) (A) (A) (A) (A) (A) (A)
       Virtual   (A) (A) (A) (A) (A) (A) (A) (A) (A) (A) (A) (A)
                 (A) (A) (A) (A) (A) (A) (A) (A) (A) (A) (A) (A)
                 (A) (A) (A) (A) (A) (A) (A) (A) (A) (A) (A) (A)
                 (A) (A) (A) (A) (A) (A) (A) (A) (A) (A) (A) (A)
                 (A) (A) (A) (A) (A) (A) (A) (A) (A) (A) (A) (A)
                 (A) (A) (A) (A) (A) (A) (A) (A) (A) (A) (A) (A)
                 (A) (A) (A) (A) (A) (A) (A) (A) (A) (A) (A) (A)
                 (A) (A) (A) (A) (A) (A) (A) (A) (A) (A) (A) (A)
                 (A) (A) (A) (A) (A) (A) (A) (A) (A) (A) (A) (A)
                 (A) (A) (A) (A) (A) (A) (A) (A) (A) (A) (A) (A)
                 (A) (A) (A) (A) (A) (A) (A) (A) (A) (A) (A) (A)
                 (A) (A) (A) (A) (A) (A) (A) (A) (A) (A) (A)
 The electronic state of the initial guess is 1-A.
 Leave Link  401 at Wed Jul 10 16:50:18 2013, MaxMem=  131072000 cpu:       7.5
 (Enter /cerebro/home/software/apps/g09/l502.exe)
 Closed shell SCF:
 Requested convergence on RMS density matrix=1.00D-11 within 128 cycles.
 Requested convergence on MAX density matrix=1.00D-09.
 Requested convergence on             energy=1.00D-09.
 No special actions if energy rises.
 Using DIIS extrapolation, IDIIS=  1040.
 Integral symmetry usage will be decided dynamically.
       281469 words used for storage of precomputed grid.
 Keep R1 ints in memory in canonical form, NReq=113664361.
 IEnd=      390694 IEndB=      390694 NGot=   131072000 MDV=    20042794
 LenX=    20042794 LenY=    20012769
 Symmetry not used in FoFDir.
 MinBra= 0 MaxBra= 2 Meth= 1.
 IRaf=       0 NMat=   1 IRICut=       1 DoRegI=T DoRafI=F ISym2E= 0 JSym2E=0.

 Cycle   1  Pass 1  IDiag  1:
 E= -616.731061029552    
 DIIS: error= 3.23D-02 at cycle   1 NSaved=   1.
 NSaved= 1 IEnMin= 1 EnMin= -616.731061029552     IErMin= 1 ErrMin= 3.23D-02
 ErrMax= 3.23D-02 EMaxC= 1.00D-01 BMatC= 1.90D-01 BMatP= 1.90D-01
 IDIUse=3 WtCom= 6.77D-01 WtEn= 3.23D-01
 Coeff-Com:  0.100D+01
 Coeff-En:   0.100D+01
 Coeff:      0.100D+01
 Gap=     0.326 Goal=   None    Shift=    0.000
 GapD=    0.326 DampG=1.000 DampE=0.500 DampFc=0.5000 IDamp=-1.
 Damping current iteration by 5.00D-01
 RMSDP=6.73D-03 MaxDP=1.43D-01              OVMax= 2.11D-01

 Cycle   2  Pass 1  IDiag  1:
 E= -616.797130895571     Delta-E=       -0.066069866019 Rises=F Damp=T
 DIIS: error= 5.35D-03 at cycle   2 NSaved=   2.
 NSaved= 2 IEnMin= 2 EnMin= -616.797130895571     IErMin= 2 ErrMin= 5.35D-03
 ErrMax= 5.35D-03 EMaxC= 1.00D-01 BMatC= 1.24D-02 BMatP= 1.90D-01
 IDIUse=3 WtCom= 9.47D-01 WtEn= 5.35D-02
 Coeff-Com:  0.363D-01 0.964D+00
 Coeff-En:   0.180D+00 0.820D+00
 Coeff:      0.440D-01 0.956D+00
 Gap=     0.278 Goal=   None    Shift=    0.000
 RMSDP=4.86D-03 MaxDP=2.07D-01 DE=-6.61D-02 OVMax= 1.15D-01

 Cycle   3  Pass 1  IDiag  1:
 E= -616.884467283906     Delta-E=       -0.087336388335 Rises=F Damp=F
 DIIS: error= 5.87D-03 at cycle   3 NSaved=   3.
 NSaved= 3 IEnMin= 3 EnMin= -616.884467283906     IErMin= 2 ErrMin= 5.35D-03
 ErrMax= 5.87D-03 EMaxC= 1.00D-01 BMatC= 4.87D-03 BMatP= 1.24D-02
 IDIUse=3 WtCom= 9.41D-01 WtEn= 5.87D-02
 Coeff-Com: -0.680D-01 0.342D+00 0.726D+00
 Coeff-En:   0.000D+00 0.000D+00 0.100D+01
 Coeff:     -0.640D-01 0.322D+00 0.742D+00
 Gap=     0.236 Goal=   None    Shift=    0.000
 RMSDP=1.96D-03 MaxDP=6.40D-02 DE=-8.73D-02 OVMax= 2.69D-02

 Cycle   4  Pass 1  IDiag  1:
 E= -616.888434542336     Delta-E=       -0.003967258431 Rises=F Damp=F
 DIIS: error= 3.13D-03 at cycle   4 NSaved=   4.
 NSaved= 4 IEnMin= 4 EnMin= -616.888434542336     IErMin= 4 ErrMin= 3.13D-03
 ErrMax= 3.13D-03 EMaxC= 1.00D-01 BMatC= 1.64D-03 BMatP= 4.87D-03
 IDIUse=3 WtCom= 9.69D-01 WtEn= 3.13D-02
 Coeff-Com: -0.381D-01 0.124D+00 0.439D+00 0.475D+00
 Coeff-En:   0.000D+00 0.000D+00 0.216D+00 0.784D+00
 Coeff:     -0.369D-01 0.120D+00 0.432D+00 0.485D+00
 Gap=     0.227 Goal=   None    Shift=    0.000
 RMSDP=5.70D-04 MaxDP=1.99D-02 DE=-3.97D-03 OVMax= 9.46D-03

 Cycle   5  Pass 1  IDiag  1:
 E= -616.889991579410     Delta-E=       -0.001557037074 Rises=F Damp=F
 DIIS: error= 5.02D-04 at cycle   5 NSaved=   5.
 NSaved= 5 IEnMin= 5 EnMin= -616.889991579410     IErMin= 5 ErrMin= 5.02D-04
 ErrMax= 5.02D-04 EMaxC= 1.00D-01 BMatC= 5.49D-05 BMatP= 1.64D-03
 IDIUse=3 WtCom= 9.95D-01 WtEn= 5.02D-03
 Coeff-Com: -0.135D-01 0.384D-01 0.174D+00 0.229D+00 0.573D+00
 Coeff-En:   0.000D+00 0.000D+00 0.000D+00 0.000D+00 0.100D+01
 Coeff:     -0.134D-01 0.382D-01 0.173D+00 0.227D+00 0.575D+00
 Gap=     0.227 Goal=   None    Shift=    0.000
 RMSDP=8.68D-05 MaxDP=2.80D-03 DE=-1.56D-03 OVMax= 6.06D-03

 Cycle   6  Pass 1  IDiag  1:
 E= -616.890028960034     Delta-E=       -0.000037380624 Rises=F Damp=F
 DIIS: error= 3.23D-04 at cycle   6 NSaved=   6.
 NSaved= 6 IEnMin= 6 EnMin= -616.890028960034     IErMin= 6 ErrMin= 3.23D-04
 ErrMax= 3.23D-04 EMaxC= 1.00D-01 BMatC= 1.95D-05 BMatP= 5.49D-05
 IDIUse=3 WtCom= 9.97D-01 WtEn= 3.23D-03
 Coeff-Com: -0.362D-02 0.710D-02 0.545D-01 0.800D-01 0.384D+00 0.478D+00
 Coeff-En:   0.000D+00 0.000D+00 0.000D+00 0.000D+00 0.287D+00 0.713D+00
 Coeff:     -0.360D-02 0.707D-02 0.543D-01 0.797D-01 0.384D+00 0.479D+00
 Gap=     0.227 Goal=   None    Shift=    0.000
 RMSDP=4.93D-05 MaxDP=1.67D-03 DE=-3.74D-05 OVMax= 2.67D-03

 Cycle   7  Pass 1  IDiag  1:
 E= -616.890048863280     Delta-E=       -0.000019903245 Rises=F Damp=F
 DIIS: error= 4.48D-05 at cycle   7 NSaved=   7.
 NSaved= 7 IEnMin= 7 EnMin= -616.890048863280     IErMin= 7 ErrMin= 4.48D-05
 ErrMax= 4.48D-05 EMaxC= 1.00D-01 BMatC= 5.33D-07 BMatP= 1.95D-05
 IDIUse=1 WtCom= 1.00D+00 WtEn= 0.00D+00
 Coeff-Com: -0.711D-03 0.415D-03 0.135D-01 0.200D-01 0.131D+00 0.224D+00
 Coeff-Com:  0.612D+00
 Coeff:     -0.711D-03 0.415D-03 0.135D-01 0.200D-01 0.131D+00 0.224D+00
 Coeff:      0.612D+00
 Gap=     0.227 Goal=   None    Shift=    0.000
 RMSDP=1.06D-05 MaxDP=3.04D-04 DE=-1.99D-05 OVMax= 2.40D-04

 Cycle   8  Pass 1  IDiag  1:
 E= -616.890049362095     Delta-E=       -0.000000498815 Rises=F Damp=F
 DIIS: error= 7.60D-06 at cycle   8 NSaved=   8.
 NSaved= 8 IEnMin= 8 EnMin= -616.890049362095     IErMin= 8 ErrMin= 7.60D-06
 ErrMax= 7.60D-06 EMaxC= 1.00D-01 BMatC= 2.04D-08 BMatP= 5.33D-07
 IDIUse=1 WtCom= 1.00D+00 WtEn= 0.00D+00
 Coeff-Com:  0.562D-04-0.380D-03 0.994D-03 0.152D-02 0.230D-01 0.563D-01
 Coeff-Com:  0.227D+00 0.691D+00
 Coeff:      0.562D-04-0.380D-03 0.994D-03 0.152D-02 0.230D-01 0.563D-01
 Coeff:      0.227D+00 0.691D+00
 Gap=     0.227 Goal=   None    Shift=    0.000
 RMSDP=1.92D-06 MaxDP=4.75D-05 DE=-4.99D-07 OVMax= 5.00D-05

 Cycle   9  Pass 1  IDiag  1:
 E= -616.890049381584     Delta-E=       -0.000000019489 Rises=F Damp=F
 DIIS: error= 2.40D-06 at cycle   9 NSaved=   9.
 NSaved= 9 IEnMin= 9 EnMin= -616.890049381584     IErMin= 9 ErrMin= 2.40D-06
 ErrMax= 2.40D-06 EMaxC= 1.00D-01 BMatC= 1.38D-09 BMatP= 2.04D-08
 IDIUse=1 WtCom= 1.00D+00 WtEn= 0.00D+00
 Coeff-Com:  0.507D-04-0.118D-03-0.535D-03-0.784D-03-0.279D-02-0.133D-03
 Coeff-Com:  0.181D-01 0.245D+00 0.742D+00
 Coeff:      0.507D-04-0.118D-03-0.535D-03-0.784D-03-0.279D-02-0.133D-03
 Coeff:      0.181D-01 0.245D+00 0.742D+00
 Gap=     0.227 Goal=   None    Shift=    0.000
 RMSDP=8.99D-07 MaxDP=3.19D-05 DE=-1.95D-08 OVMax= 9.18D-06

 Cycle  10  Pass 1  IDiag  1:
 E= -616.890049382954     Delta-E=       -0.000000001371 Rises=F Damp=F
 DIIS: error= 4.35D-07 at cycle  10 NSaved=  10.
 NSaved=10 IEnMin=10 EnMin= -616.890049382954     IErMin=10 ErrMin= 4.35D-07
 ErrMax= 4.35D-07 EMaxC= 1.00D-01 BMatC= 4.95D-11 BMatP= 1.38D-09
 IDIUse=1 WtCom= 1.00D+00 WtEn= 0.00D+00
 Coeff-Com:  0.133D-04-0.235D-04-0.205D-03-0.299D-03-0.163D-02-0.155D-02
 Coeff-Com: -0.515D-03 0.720D-01 0.271D+00 0.661D+00
 Coeff:      0.133D-04-0.235D-04-0.205D-03-0.299D-03-0.163D-02-0.155D-02
 Coeff:     -0.515D-03 0.720D-01 0.271D+00 0.661D+00
 Gap=     0.227 Goal=   None    Shift=    0.000
 RMSDP=1.32D-07 MaxDP=5.36D-06 DE=-1.37D-09 OVMax= 2.05D-06

 Cycle  11  Pass 1  IDiag  1:
 E= -616.890049383001     Delta-E=       -0.000000000047 Rises=F Damp=F
 DIIS: error= 1.55D-07 at cycle  11 NSaved=  11.
 NSaved=11 IEnMin=11 EnMin= -616.890049383001     IErMin=11 ErrMin= 1.55D-07
 ErrMax= 1.55D-07 EMaxC= 1.00D-01 BMatC= 7.33D-12 BMatP= 4.95D-11
 IDIUse=1 WtCom= 1.00D+00 WtEn= 0.00D+00
 Coeff-Com:  0.229D-05-0.230D-05-0.572D-04-0.820D-04-0.523D-03-0.598D-03
 Coeff-Com: -0.155D-02 0.137D-01 0.642D-01 0.315D+00 0.610D+00
 Coeff:      0.229D-05-0.230D-05-0.572D-04-0.820D-04-0.523D-03-0.598D-03
 Coeff:     -0.155D-02 0.137D-01 0.642D-01 0.315D+00 0.610D+00
 Gap=     0.227 Goal=   None    Shift=    0.000
 RMSDP=4.65D-08 MaxDP=1.89D-06 DE=-4.66D-11 OVMax= 5.72D-07

 Cycle  12  Pass 1  IDiag  1:
 E= -616.890049383006     Delta-E=       -0.000000000005 Rises=F Damp=F
 DIIS: error= 2.51D-08 at cycle  12 NSaved=  12.
 NSaved=12 IEnMin=12 EnMin= -616.890049383006     IErMin=12 ErrMin= 2.51D-08
 ErrMax= 2.51D-08 EMaxC= 1.00D-01 BMatC= 1.93D-13 BMatP= 7.33D-12
 IDIUse=1 WtCom= 1.00D+00 WtEn= 0.00D+00
 Coeff-Com: -0.269D-06 0.855D-06-0.197D-05-0.469D-05-0.393D-04-0.216D-04
 Coeff-Com: -0.390D-03-0.143D-02-0.719D-03 0.402D-01 0.152D+00 0.810D+00
 Coeff:     -0.269D-06 0.855D-06-0.197D-05-0.469D-05-0.393D-04-0.216D-04
 Coeff:     -0.390D-03-0.143D-02-0.719D-03 0.402D-01 0.152D+00 0.810D+00
 Gap=     0.227 Goal=   None    Shift=    0.000
 RMSDP=1.10D-08 MaxDP=4.47D-07 DE=-5.34D-12 OVMax= 1.51D-07

 Cycle  13  Pass 1  IDiag  1:
 E= -616.890049383010     Delta-E=       -0.000000000004 Rises=F Damp=F
 DIIS: error= 7.92D-09 at cycle  13 NSaved=  13.
 NSaved=13 IEnMin=13 EnMin= -616.890049383010     IErMin=13 ErrMin= 7.92D-09
 ErrMax= 7.92D-09 EMaxC= 1.00D-01 BMatC= 8.75D-15 BMatP= 1.93D-13
 IDIUse=1 WtCom= 1.00D+00 WtEn= 0.00D+00
 Coeff-Com: -0.190D-06 0.407D-06 0.175D-05 0.166D-05 0.383D-05 0.132D-04
 Coeff-Com: -0.989D-04-0.992D-03-0.252D-02 0.135D-02 0.244D-01 0.251D+00
 Coeff-Com:  0.727D+00
 Coeff:     -0.190D-06 0.407D-06 0.175D-05 0.166D-05 0.383D-05 0.132D-04
 Coeff:     -0.989D-04-0.992D-03-0.252D-02 0.135D-02 0.244D-01 0.251D+00
 Coeff:      0.727D+00
 Gap=     0.227 Goal=   None    Shift=    0.000
 RMSDP=2.29D-09 MaxDP=6.82D-08 DE=-3.52D-12 OVMax= 2.11D-08

 Cycle  14  Pass 1  IDiag  1:
 E= -616.890049383008     Delta-E=        0.000000000002 Rises=F Damp=F
 DIIS: error= 9.69D-10 at cycle  14 NSaved=  14.
 NSaved=14 IEnMin=13 EnMin= -616.890049383010     IErMin=14 ErrMin= 9.69D-10
 ErrMax= 9.69D-10 EMaxC= 1.00D-01 BMatC= 2.75D-16 BMatP= 8.75D-15
 IDIUse=1 WtCom= 1.00D+00 WtEn= 0.00D+00
 Coeff-Com: -0.108D-07 0.195D-07 0.386D-06 0.486D-06 0.177D-05 0.371D-05
 Coeff-Com: -0.362D-05-0.103D-03-0.441D-03-0.184D-02-0.310D-02 0.972D-02
 Coeff-Com:  0.147D+00 0.848D+00
 Coeff:     -0.108D-07 0.195D-07 0.386D-06 0.486D-06 0.177D-05 0.371D-05
 Coeff:     -0.362D-05-0.103D-03-0.441D-03-0.184D-02-0.310D-02 0.972D-02
 Coeff:      0.147D+00 0.848D+00
 Gap=     0.227 Goal=   None    Shift=    0.000
 RMSDP=5.01D-10 MaxDP=1.67D-08 DE= 1.71D-12 OVMax= 5.77D-09

 Cycle  15  Pass 1  IDiag  1:
 E= -616.890049383008     Delta-E=        0.000000000000 Rises=F Damp=F
 DIIS: error= 2.13D-10 at cycle  15 NSaved=  15.
 NSaved=15 IEnMin=13 EnMin= -616.890049383010     IErMin=15 ErrMin= 2.13D-10
 ErrMax= 2.13D-10 EMaxC= 1.00D-01 BMatC= 6.80D-18 BMatP= 2.75D-16
 IDIUse=1 WtCom= 1.00D+00 WtEn= 0.00D+00
 Coeff-Com:  0.141D-08-0.350D-08 0.468D-07 0.886D-07 0.269D-06 0.579D-06
 Coeff-Com:  0.122D-05 0.156D-05-0.333D-04-0.377D-03-0.122D-02-0.373D-02
 Coeff-Com:  0.105D-01 0.158D+00 0.836D+00
 Coeff:      0.141D-08-0.350D-08 0.468D-07 0.886D-07 0.269D-06 0.579D-06
 Coeff:      0.122D-05 0.156D-05-0.333D-04-0.377D-03-0.122D-02-0.373D-02
 Coeff:      0.105D-01 0.158D+00 0.836D+00
 Gap=     0.227 Goal=   None    Shift=    0.000
 RMSDP=1.38D-10 MaxDP=4.85D-09 DE=-1.14D-13 OVMax= 7.74D-10

 Cycle  16  Pass 1  IDiag  1:
 E= -616.890049383008     Delta-E=        0.000000000000 Rises=F Damp=F
 DIIS: error= 6.15D-11 at cycle  16 NSaved=  16.
 NSaved=16 IEnMin=13 EnMin= -616.890049383010     IErMin=16 ErrMin= 6.15D-11
 ErrMax= 6.15D-11 EMaxC= 1.00D-01 BMatC= 4.34D-19 BMatP= 6.80D-18
 IDIUse=1 WtCom= 1.00D+00 WtEn= 0.00D+00
 Large coefficients: NSaved= 16 BigCof=    0.00 CofMax=   10.00 Det=-4.01D-18
 Inversion failed.  Reducing to 15 matrices.
 Coeff-Com: -0.243D-09 0.636D-08 0.185D-07 0.547D-07 0.123D-06 0.453D-06
 Coeff-Com:  0.222D-05 0.253D-05-0.301D-04-0.191D-03-0.107D-02-0.250D-02
 Coeff-Com:  0.633D-02 0.225D+00 0.773D+00
 Coeff:     -0.243D-09 0.636D-08 0.185D-07 0.547D-07 0.123D-06 0.453D-06
 Coeff:      0.222D-05 0.253D-05-0.301D-04-0.191D-03-0.107D-02-0.250D-02
 Coeff:      0.633D-02 0.225D+00 0.773D+00
 Gap=     0.227 Goal=   None    Shift=    0.000
 RMSDP=4.36D-11 MaxDP=1.53D-09 DE=-2.27D-13 OVMax= 2.37D-10

 Cycle  17  Pass 1  IDiag  1:
 E= -616.890049383009     Delta-E=       -0.000000000001 Rises=F Damp=F
 DIIS: error= 1.10D-11 at cycle  17 NSaved=  16.
 NSaved=16 IEnMin=12 EnMin= -616.890049383010     IErMin=16 ErrMin= 1.10D-11
 ErrMax= 1.10D-11 EMaxC= 1.00D-01 BMatC= 1.73D-20 BMatP= 4.34D-19
 IDIUse=1 WtCom= 1.00D+00 WtEn= 0.00D+00
 Large coefficients: NSaved= 16 BigCof=    0.00 CofMax=   10.00 Det=-2.19D-19
 Inversion failed.  Reducing to 15 matrices.
 Coeff-Com: -0.191D-08-0.164D-08-0.616D-08-0.182D-08 0.466D-07 0.576D-06
 Coeff-Com:  0.310D-05 0.136D-04 0.144D-04-0.964D-04-0.126D-02-0.737D-02
 Coeff-Com:  0.124D-01 0.198D+00 0.798D+00
 Coeff:     -0.191D-08-0.164D-08-0.616D-08-0.182D-08 0.466D-07 0.576D-06
 Coeff:      0.310D-05 0.136D-04 0.144D-04-0.964D-04-0.126D-02-0.737D-02
 Coeff:      0.124D-01 0.198D+00 0.798D+00
 Gap=     0.227 Goal=   None    Shift=    0.000
 RMSDP=1.72D-11 MaxDP=8.96D-10 DE=-5.68D-13 OVMax= 3.94D-11

 Cycle  18  Pass 1  IDiag  1:
 E= -616.890049383010     Delta-E=       -0.000000000001 Rises=F Damp=F
 DIIS: error= 2.68D-12 at cycle  18 NSaved=  16.
 NSaved=16 IEnMin=11 EnMin= -616.890049383010     IErMin=16 ErrMin= 2.68D-12
 ErrMax= 2.68D-12 EMaxC= 1.00D-01 BMatC= 5.45D-22 BMatP= 1.73D-20
 IDIUse=1 WtCom= 1.00D+00 WtEn= 0.00D+00
 Large coefficients: NSaved= 16 BigCof=    0.00 CofMax=   10.00 Det=-5.69D-21
 Inversion failed.  Reducing to 15 matrices.
 Coeff-Com: -0.249D-10 0.130D-08 0.107D-08 0.112D-07 0.259D-07 0.203D-06
 Coeff-Com:  0.638D-06 0.121D-05-0.758D-05-0.689D-04-0.694D-03-0.192D-02
 Coeff-Com:  0.140D-01 0.134D+00 0.855D+00
 Coeff:     -0.249D-10 0.130D-08 0.107D-08 0.112D-07 0.259D-07 0.203D-06
 Coeff:      0.638D-06 0.121D-05-0.758D-05-0.689D-04-0.694D-03-0.192D-02
 Coeff:      0.140D-01 0.134D+00 0.855D+00
 Gap=     0.227 Goal=   None    Shift=    0.000
 RMSDP=1.66D-11 MaxDP=1.25D-09 DE=-7.96D-13 OVMax= 1.07D-11

 Cycle  19  Pass 1  IDiag  1:
 E= -616.890049383009     Delta-E=        0.000000000000 Rises=F Damp=F
 DIIS: error= 2.05D-12 at cycle  19 NSaved=  16.
 NSaved=16 IEnMin=10 EnMin= -616.890049383010     IErMin=16 ErrMin= 2.05D-12
 ErrMax= 2.05D-12 EMaxC= 1.00D-01 BMatC= 2.54D-22 BMatP= 5.45D-22
 IDIUse=1 WtCom= 1.00D+00 WtEn= 0.00D+00
 Large coefficients: NSaved= 16 BigCof=    0.00 CofMax=   10.00 Det=-8.62D-22
 Inversion failed.  Reducing to 15 matrices.
 Coeff-Com:  0.514D-09-0.167D-09 0.227D-08 0.217D-08 0.747D-07 0.432D-06
 Coeff-Com:  0.116D-05-0.166D-05-0.291D-04-0.329D-03-0.132D-02 0.365D-02
 Coeff-Com:  0.510D-01 0.406D+00 0.541D+00
 Coeff:      0.514D-09-0.167D-09 0.227D-08 0.217D-08 0.747D-07 0.432D-06
 Coeff:      0.116D-05-0.166D-05-0.291D-04-0.329D-03-0.132D-02 0.365D-02
 Coeff:      0.510D-01 0.406D+00 0.541D+00
 Gap=     0.227 Goal=   None    Shift=    0.000
 RMSDP=1.44D-11 MaxDP=7.59D-10 DE= 4.55D-13 OVMax= 6.16D-12

 Cycle  20  Pass 1  IDiag  1:
 E= -616.890049383007     Delta-E=        0.000000000002 Rises=F Damp=F
 DIIS: error= 1.98D-12 at cycle  20 NSaved=  16.
 NSaved=16 IEnMin= 9 EnMin= -616.890049383010     IErMin=16 ErrMin= 1.98D-12
 ErrMax= 1.98D-12 EMaxC= 1.00D-01 BMatC= 1.42D-22 BMatP= 2.54D-22
 IDIUse=1 WtCom= 1.00D+00 WtEn= 0.00D+00
 Large coefficients: NSaved= 16 BigCof=    0.00 CofMax=   10.00 Det=-2.30D-22
 Inversion failed.  Reducing to 15 matrices.
 Coeff-Com: -0.637D-09-0.856D-09-0.239D-08 0.507D-07 0.267D-06 0.705D-06
 Coeff-Com: -0.518D-06-0.821D-05-0.158D-03-0.807D-03 0.222D-02 0.353D-01
 Coeff-Com:  0.292D+00 0.341D+00 0.330D+00
 Coeff:     -0.637D-09-0.856D-09-0.239D-08 0.507D-07 0.267D-06 0.705D-06
 Coeff:     -0.518D-06-0.821D-05-0.158D-03-0.807D-03 0.222D-02 0.353D-01
 Coeff:      0.292D+00 0.341D+00 0.330D+00
 Gap=     0.227 Goal=   None    Shift=    0.000
 RMSDP=5.28D-12 MaxDP=2.44D-10 DE= 1.71D-12 OVMax= 2.47D-12

 SCF Done:  E(RB3LYP) =  -616.890049383     A.U. after   20 cycles
             Convg  =    0.5279D-11             -V/T =  2.0034
 KE= 6.147801151519D+02 PE=-1.878397048119D+03 EE= 4.358234082671D+02
 Leave Link  502 at Wed Jul 10 16:54:46 2013, MaxMem=  131072000 cpu:     267.7
 (Enter /cerebro/home/software/apps/g09/l801.exe)
 Range of M.O.s used for correlation:     1   167
 NBasis=   167 NAE=    24 NBE=    24 NFC=     0 NFV=     0
 NROrb=    167 NOA=    24 NOB=    24 NVA=   143 NVB=   143

 **** Warning!!: The largest alpha MO coefficient is  0.50190319D+02

 Leave Link  801 at Wed Jul 10 16:54:46 2013, MaxMem=  131072000 cpu:       0.0
 (Enter /cerebro/home/software/apps/g09/l1002.exe)
 Minotr:  Closed shell wavefunction.
          Direct CPHF calculation.
          Differentiating once with respect to magnetic field using GIAOs.
          Electric field/nuclear overlap derivatives assumed to be zero.
          Requested convergence is 1.0D-11 RMS, and 1.0D-10 maximum.
          NewPWx=F KeepS1=T KeepF1=T KeepIn=T MapXYZ=F SortEE=F KeepMc=T.
          MDV=     131071900 using IRadAn=       4.
 Generate precomputed XC quadrature information.
          Solving linear equations separately, MaxMat=       0.
          Doing perturbations at frequencies    0.071980    0.077357    0.104503    0.128347
 FoFCou: FMM=F IPFlag=           0 FMFlag=           0 FMFlg1=           0
         NFxFlg=           0 DoJE=F BraDBF=F KetDBF=T FulRan=T
         Omega=  0.000000  0.000000  1.000000  0.000000  0.000000 ICntrl=    6100 IOpCl=  0
         NMat0=    1 NMatS0=    1 NMatT0=    0 NMatD0=    1 NMtDS0=    0 NMtDT0=    0
         I1Cent=           7 NGrid=          12.
 Symmetry not used in FoFCou.
 Integrals replicated using symmetry in FoFDir.
 MinBra= 0 MaxBra= 2 Meth= 1.
 IRaf=       0 NMat=  24 IRICut=      30 DoRegI=T DoRafI=T ISym2E= 2 JSym2E=2.
 CalDSu exits because no D1Ps are significant.
          There are    12 degrees of freedom in the 1st order CPHF.  IDoFFX=0.
 LinEq1:  Iter=  0 NonCon=    12 RMS=6.83D-02 Max=2.79D+00
 AX will form    12 AO Fock derivatives at one time.
 LinEq1:  Iter=  1 NonCon=    12 RMS=2.30D-02 Max=1.10D+00
 LinEq1:  Iter=  2 NonCon=    12 RMS=2.31D-02 Max=1.04D+00
 LinEq1:  Iter=  3 NonCon=    12 RMS=1.14D-02 Max=2.76D-01
 LinEq1:  Iter=  4 NonCon=    12 RMS=7.59D-03 Max=1.54D-01
 LinEq1:  Iter=  5 NonCon=    12 RMS=2.66D-03 Max=8.00D-02
 LinEq1:  Iter=  6 NonCon=    12 RMS=1.40D-03 Max=2.46D-02
 LinEq1:  Iter=  7 NonCon=    12 RMS=4.69D-04 Max=7.41D-03
 LinEq1:  Iter=  8 NonCon=    12 RMS=2.17D-04 Max=4.17D-03
 LinEq1:  Iter=  9 NonCon=    12 RMS=7.15D-05 Max=9.67D-04
 LinEq1:  Iter= 10 NonCon=    12 RMS=3.00D-05 Max=4.80D-04
 LinEq1:  Iter= 11 NonCon=    12 RMS=1.25D-05 Max=2.10D-04
 LinEq1:  Iter= 12 NonCon=    12 RMS=5.21D-06 Max=7.01D-05
 LinEq1:  Iter= 13 NonCon=    12 RMS=2.21D-06 Max=4.74D-05
 LinEq1:  Iter= 14 NonCon=    12 RMS=7.75D-07 Max=2.26D-05
 LinEq1:  Iter= 15 NonCon=    12 RMS=2.34D-07 Max=5.96D-06
 LinEq1:  Iter= 16 NonCon=    12 RMS=7.25D-08 Max=2.39D-06
 LinEq1:  Iter= 17 NonCon=    12 RMS=2.17D-08 Max=5.01D-07
 LinEq1:  Iter= 18 NonCon=    12 RMS=5.87D-09 Max=1.44D-07
 LinEq1:  Iter= 19 NonCon=    12 RMS=1.65D-09 Max=3.16D-08
 LinEq1:  Iter= 20 NonCon=    12 RMS=4.14D-10 Max=6.12D-09
 LinEq1:  Iter= 21 NonCon=    10 RMS=1.24D-10 Max=2.01D-09
 LinEq1:  Iter= 22 NonCon=     6 RMS=3.25D-11 Max=5.34D-10
 LinEq1:  Iter= 23 NonCon=     1 RMS=9.30D-12 Max=1.67D-10
 LinEq1:  Iter= 24 NonCon=     0 RMS=3.73D-12 Max=3.89D-11
 Linear equations converged to 1.000D-11 1.000D-10 after    24 iterations.
 FullF1:  Do perturbations    1 to    12.
 Dipole-magnetic dipole polarizability for W=    0.071980:
                 1             2             3 
      1   0.480835D+01  0.223796D+01 -0.942555D+01
      2   0.808159D+01 -0.805647D+01  0.186111D+02
      3   0.376585D+02 -0.105789D+02  0.575040D+01
 w=    0.071980 a.u., Optical Rotation Beta=     -0.8341 au.
 Molar Mass =     90.5523 grams/mole, [Alpha] ( 6330.0 A) =     -308.57 deg.
 Dipole-magnetic dipole polarizability for W=    0.077357:
                 1             2             3 
      1   0.489905D+01  0.223932D+01 -0.942200D+01
      2   0.824320D+01 -0.810580D+01  0.187090D+02
      3   0.381423D+02 -0.107054D+02  0.580593D+01
 w=    0.077357 a.u., Optical Rotation Beta=     -0.8664 au.
 Molar Mass =     90.5523 grams/mole, [Alpha] ( 5890.0 A) =     -370.20 deg.
 Dipole-magnetic dipole polarizability for W=    0.104503:
                 1             2             3 
      1   0.554802D+01  0.223705D+01 -0.938574D+01
      2   0.935936D+01 -0.842528D+01  0.193555D+02
      3   0.415956D+02 -0.115919D+02  0.619726D+01
 w=    0.104503 a.u., Optical Rotation Beta=     -1.1067 au.
 Molar Mass =     90.5523 grams/mole, [Alpha] ( 4360.0 A) =     -862.96 deg.
 Dipole-magnetic dipole polarizability for W=    0.128347:
                 1             2             3 
      1   0.653929D+01  0.220237D+01 -0.930662D+01
      2   0.109355D+02 -0.882109D+01  0.201939D+02
      3   0.468590D+02 -0.128905D+02  0.678093D+01
 w=    0.128347 a.u., Optical Rotation Beta=     -1.4997 au.
 Molar Mass =     90.5523 grams/mole, [Alpha] ( 3550.0 A) =    -1764.00 deg.
 End of Minotr Frequency-dependent properties on file   721 Mask=       2 NFrqRd=     4 NDeriv=     1 LenFil=      42:
 Frequencies=    0.071980    0.077357    0.104503    0.128347
 Property number 2 -- FD Optical Rotation Tensor frequency  1    0.071980:
                 1             2             3 
      1   0.480835D+01  0.223796D+01 -0.942555D+01
      2   0.808159D+01 -0.805647D+01  0.186111D+02
      3   0.376585D+02 -0.105789D+02  0.575040D+01
 Property number 2 -- FD Optical Rotation Tensor frequency  2    0.077357:
                 1             2             3 
      1   0.489905D+01  0.223932D+01 -0.942200D+01
      2   0.824320D+01 -0.810580D+01  0.187090D+02
      3   0.381423D+02 -0.107054D+02  0.580593D+01
 Property number 2 -- FD Optical Rotation Tensor frequency  3    0.104503:
                 1             2             3 
      1   0.554802D+01  0.223705D+01 -0.938574D+01
      2   0.935936D+01 -0.842528D+01  0.193555D+02
      3   0.415956D+02 -0.115919D+02  0.619726D+01
 Property number 2 -- FD Optical Rotation Tensor frequency  4    0.128347:
                 1             2             3 
      1   0.653929D+01  0.220237D+01 -0.930662D+01
      2   0.109355D+02 -0.882109D+01  0.201939D+02
      3   0.468590D+02 -0.128905D+02  0.678093D+01
 End of Minotr Frequency-dependent properties file   722 does not exist.
 Leave Link 1002 at Wed Jul 10 17:20:26 2013, MaxMem=  131072000 cpu:    1540.2
 (Enter /cerebro/home/software/apps/g09/l601.exe)
 Copying SCF densities to generalized density rwf, IOpCl= 0 IROHF=0.

 **********************************************************************

            Population analysis using the SCF density.

 **********************************************************************

 Orbital symmetries:
       Occupied  (A) (A) (A) (A) (A) (A) (A) (A) (A) (A) (A) (A)
                 (A) (A) (A) (A) (A) (A) (A) (A) (A) (A) (A) (A)
       Virtual   (A) (A) (A) (A) (A) (A) (A) (A) (A) (A) (A) (A)
                 (A) (A) (A) (A) (A) (A) (A) (A) (A) (A) (A) (A)
                 (A) (A) (A) (A) (A) (A) (A) (A) (A) (A) (A) (A)
                 (A) (A) (A) (A) (A) (A) (A) (A) (A) (A) (A) (A)
                 (A) (A) (A) (A) (A) (A) (A) (A) (A) (A) (A) (A)
                 (A) (A) (A) (A) (A) (A) (A) (A) (A) (A) (A) (A)
                 (A) (A) (A) (A) (A) (A) (A) (A) (A) (A) (A) (A)
                 (A) (A) (A) (A) (A) (A) (A) (A) (A) (A) (A) (A)
                 (A) (A) (A) (A) (A) (A) (A) (A) (A) (A) (A) (A)
                 (A) (A) (A) (A) (A) (A) (A) (A) (A) (A) (A) (A)
                 (A) (A) (A) (A) (A) (A) (A) (A) (A) (A) (A) (A)
                 (A) (A) (A) (A) (A) (A) (A) (A) (A) (A) (A)
 The electronic state is 1-A.
 Alpha  occ. eigenvalues -- -101.53179 -10.24783 -10.20447 -10.19537 -10.18264
 Alpha  occ. eigenvalues --   -9.44619  -7.21054  -7.20112  -7.20094  -0.86420
 Alpha  occ. eigenvalues --   -0.77720  -0.74039  -0.63962  -0.57415  -0.48150
 Alpha  occ. eigenvalues --   -0.46946  -0.44876  -0.40558  -0.40187  -0.38003
 Alpha  occ. eigenvalues --   -0.36728  -0.30497  -0.29761  -0.27174
 Alpha virt. eigenvalues --   -0.04496  -0.00777   0.00464   0.00681   0.02034
 Alpha virt. eigenvalues --    0.03100   0.03653   0.03933   0.06261   0.06875
 Alpha virt. eigenvalues --    0.07410   0.08315   0.08924   0.10060   0.10651
 Alpha virt. eigenvalues --    0.11511   0.11851   0.12255   0.12742   0.12973
 Alpha virt. eigenvalues --    0.13819   0.14188   0.14726   0.15175   0.15910
 Alpha virt. eigenvalues --    0.16097   0.16979   0.18200   0.19888   0.20554
 Alpha virt. eigenvalues --    0.22142   0.22959   0.24437   0.25783   0.26360
 Alpha virt. eigenvalues --    0.28963   0.33428   0.34188   0.36435   0.42968
 Alpha virt. eigenvalues --    0.43178   0.44845   0.46743   0.47420   0.49029
 Alpha virt. eigenvalues --    0.49943   0.52138   0.53628   0.55372   0.59053
 Alpha virt. eigenvalues --    0.59755   0.61197   0.63026   0.64662   0.65611
 Alpha virt. eigenvalues --    0.66230   0.68197   0.69440   0.72350   0.73210
 Alpha virt. eigenvalues --    0.76713   0.81313   0.82014   0.84308   0.89032
 Alpha virt. eigenvalues --    0.90753   0.94520   0.96188   1.01625   1.03564
 Alpha virt. eigenvalues --    1.05756   1.07877   1.13531   1.14126   1.21390
 Alpha virt. eigenvalues --    1.31480   1.39154   1.43347   1.44698   1.46184
 Alpha virt. eigenvalues --    1.49294   1.52655   1.54387   1.57517   1.58739
 Alpha virt. eigenvalues --    1.61773   1.62289   1.67447   1.69802   1.72099
 Alpha virt. eigenvalues --    1.75613   1.78501   1.84369   1.88915   1.94397
 Alpha virt. eigenvalues --    1.97275   2.00271   2.05741   2.09743   2.14031
 Alpha virt. eigenvalues --    2.14971   2.19728   2.23668   2.30296   2.31632
 Alpha virt. eigenvalues --    2.34366   2.36443   2.43545   2.44855   2.47656
 Alpha virt. eigenvalues --    2.53178   2.56334   2.57413   2.57858   2.60266
 Alpha virt. eigenvalues --    2.65060   2.71173   2.73153   2.74086   2.74449
 Alpha virt. eigenvalues --    2.81483   2.86799   2.91029   3.04205   3.07266
 Alpha virt. eigenvalues --    3.17602   3.35177   3.44518   3.67303   3.78460
 Alpha virt. eigenvalues --    3.79111   3.90062   4.10723   4.29657   9.75923
 Alpha virt. eigenvalues --   23.70118  23.78413  23.93907  24.07465  25.92769
 Alpha virt. eigenvalues --   25.99391  26.44662 215.75023
          Condensed to atoms (all electrons):
              1          2          3          4          5          6
     1  C    5.392287   0.067573   0.145943  -0.012398  -0.002773   0.390898
     2  C    0.067573   5.438703  -0.018376   0.004206  -0.012765  -0.058524
     3  C    0.145943  -0.018376   5.512125   0.202129  -0.055270   0.017373
     4  C   -0.012398   0.004206   0.202129   5.640034   0.409125  -0.020345
     5  H   -0.002773  -0.012765  -0.055270   0.409125   0.546720  -0.000515
     6  H    0.390898  -0.058524   0.017373  -0.020345  -0.000515   0.550180
     7  H    0.003045   0.013531   0.000067   0.367572  -0.035045   0.000329
     8  H   -0.021582  -0.012150   0.321362  -0.023971   0.007474   0.000882
     9  H   -0.071595   0.471769  -0.130402   0.009143   0.007661  -0.000978
    10  H    0.380343  -0.001011  -0.038561  -0.002922   0.000536  -0.020888
    11  H    0.399716  -0.064834   0.017171   0.004015  -0.000622  -0.030560
    12  Cl  -0.031847   0.013825  -0.091864   0.122489   0.002956   0.011795
              7          8          9         10         11         12
     1  C    0.003045  -0.021582  -0.071595   0.380343   0.399716  -0.031847
     2  C    0.013531  -0.012150   0.471769  -0.001011  -0.064834   0.013825
     3  C    0.000067   0.321362  -0.130402  -0.038561   0.017171  -0.091864
     4  C    0.367572  -0.023971   0.009143  -0.002922   0.004015   0.122489
     5  H   -0.035045   0.007474   0.007661   0.000536  -0.000622   0.002956
     6  H    0.000329   0.000882  -0.000978  -0.020888  -0.030560   0.011795
     7  H    0.532108  -0.011332  -0.002224   0.000007   0.000169  -0.003103
     8  H   -0.011332   0.534407   0.006288   0.005068  -0.004175   0.008418
     9  H   -0.002224   0.006288   0.522522   0.011326  -0.010019  -0.040965
    10  H    0.000007   0.005068   0.011326   0.542883  -0.033926   0.010037
    11  H    0.000169  -0.004175  -0.010019  -0.033926   0.576458   0.013945
    12  Cl  -0.003103   0.008418  -0.040965   0.010037   0.013945  17.046292
 Mulliken atomic charges:
              1
     1  C   -0.639610
     2  C    0.158055
     3  C    0.118302
     4  C   -0.699075
     5  H    0.132518
     6  H    0.160355
     7  H    0.134876
     8  H    0.189311
     9  H    0.227475
    10  H    0.147110
    11  H    0.132662
    12  Cl  -0.061978
 Sum of Mulliken atomic charges =   0.00000
 Mulliken charges with hydrogens summed into heavy atoms:
              1
     1  C   -0.199484
     2  C    0.385529
     3  C    0.307613
     4  C   -0.431681
    12  Cl  -0.061978
 Sum of Mulliken charges with hydrogens summed into heavy atoms =   0.00000
 Electronic spatial extent (au):  <R**2>=            624.0490
 Charge=              0.0000 electrons
 Dipole moment (field-independent basis, Debye):
    X=              1.3723    Y=              1.7878    Z=              0.4107  Tot=              2.2908
 Quadrupole moment (field-independent basis, Debye-Ang):
   XX=            -38.9146   YY=            -40.1757   ZZ=            -37.4001
   XY=             -2.8566   XZ=             -0.2226   YZ=             -0.7224
 Traceless Quadrupole moment (field-independent basis, Debye-Ang):
   XX=             -0.0845   YY=             -1.3456   ZZ=              1.4300
   XY=             -2.8566   XZ=             -0.2226   YZ=             -0.7224
 Octapole moment (field-independent basis, Debye-Ang**2):
  XXX=              1.8093  YYY=             -0.6938  ZZZ=              0.6203  XYY=             -4.6060
  XXY=             -4.7667  XXZ=             -0.9186  XZZ=              0.4825  YZZ=              0.0628
  YYZ=              0.2286  XYZ=             -2.1104
 Hexadecapole moment (field-independent basis, Debye-Ang**3):
 XXXX=           -465.3633 YYYY=           -295.1239 ZZZZ=            -81.9410 XXXY=            -12.8504
 XXXZ=             -6.6552 YYYX=              7.6599 YYYZ=              2.2250 ZZZX=              0.7540
 ZZZY=             -3.5563 XXYY=           -131.3220 XXZZ=            -92.0456 YYZZ=            -64.4928
 XXYZ=             -0.8327 YYXZ=              2.2215 ZZXY=             -1.2012
 N-N= 2.109034753165D+02 E-N=-1.878397048119D+03  KE= 6.147801151519D+02
 No NMR shielding tensors so no spin-rotation constants.
 Leave Link  601 at Wed Jul 10 17:20:27 2013, MaxMem=  131072000 cpu:       0.2
 (Enter /cerebro/home/software/apps/g09/l9999.exe)
 AllDun Frequency-dependent properties on file 20721 Mask=       2 NFrqRd=     4 NDeriv=     1 LenFil=      42:
 Frequencies=    0.071980    0.077357    0.104503    0.128347
 Property number 2 -- FD Optical Rotation Tensor frequency  1    0.071980:
                 1             2             3 
      1   0.635513D+01  0.327719D+00 -0.668267D+01
      2  -0.818241D+01 -0.900450D+01 -0.204485D+02
      3   0.353814D+02  0.150663D+02  0.515165D+01
 Property number 2 -- FD Optical Rotation Tensor frequency  2    0.077357:
                 1             2             3 
      1   0.647176D+01  0.350815D+00 -0.666474D+01
      2  -0.834628D+01 -0.907882D+01 -0.205498D+02
      3   0.358336D+02  0.152535D+02  0.520625D+01
 Property number 2 -- FD Optical Rotation Tensor frequency  3    0.104503:
                 1             2             3 
      1   0.729955D+01  0.521862D+00 -0.653303D+01
      2  -0.948349D+01 -0.957247D+01 -0.212174D+02
      3   0.390649D+02  0.165754D+02  0.559292D+01
 Property number 2 -- FD Optical Rotation Tensor frequency  4    0.128347:
                 1             2             3 
      1   0.854328D+01  0.797307D+00 -0.632870D+01
      2  -0.111061D+02 -0.102189D+02 -0.220812D+02
      3   0.440033D+02  0.185442D+02  0.617474D+01
 1\1\GINC-COMPUTE-0-107\SP\RB3LYP\6-311++G(d,p)\C4H7Cl1\CRAWDAD\10-Jul-
 2013\0\\#P B3LYP/6-311++G** scf(conver=11) int=ultrafine polar=optrot 
 cphf(rdfreq,conver=11)\\(R)-3-chloro-1-butene tau=120\\0,1\C,0,0.57084
 25,1.80267911,0.07399112\C,0,0.00445797,0.44148482,-0.3150467\C,0,-1.2
 2253308,0.03255811,0.43062566\C,0,-2.22724552,-0.70231566,-0.15872489\
 H,0,-2.21280258,-1.03065304,-1.23483434\H,0,1.48142059,2.02275214,-0.4
 8706449\H,0,-3.09441033,-1.01028219,0.41397917\H,0,-1.24670828,0.32423
 805,1.51382642\H,0,-0.16222164,0.37239421,-1.38946903\H,0,0.80741308,1
 .83756171,1.14105447\H,0,-0.17166703,2.58223809,-0.14333831\Cl,0,1.304
 36942,-0.85735531,0.00414318\\Version=EM64L-G09RevA.02\State=1-A\HF=-6
 16.8900494\RMSD=5.279e-12\Dipole=-0.6363464,0.6267005,-0.1209195\Quadr
 upole=-0.6852263,-0.430308,1.1155343,2.1844354,-0.1036472,0.4023369\PG
 =C01 [X(C4H7Cl1)]\\@


 AN AIRPLANE IS A COLLECTION OF SPARE PARTS
 FLYING IN CLOSE FORMATION.
 Job cpu time:  0 days  0 hours 30 minutes 17.0 seconds.
 File lengths (MBytes):  RWF=    120 Int=      0 D2E=      0 Chk=      2 Scr=      1
 Normal termination of Gaussian 09 at Wed Jul 10 17:20:27 2013.
