(R)-3-chloro-1-butene tau=120                                           
SP        RB3LYP                                                      6-311++G(d,p)       
Number of atoms                            I               12
Info1-9                                    I   N=           9
          26          26           0           0           0         110
           1          18        -502
Full Title                                 C   N=           3
(R)-3-chloro-1-butene tau=120       
Route                                      C   N=           7
#P B3LYP/6-311++G** scf(conver=11) int=ultrafine polar=optro
t cphf(rdfreq,conver=11)
Charge                                     I                0
Multiplicity                               I                1
Number of electrons                        I               48
Number of alpha electrons                  I               24
Number of beta electrons                   I               24
Number of basis functions                  I              167
Number of independent functions            I              167
Number of point charges in /Mol/           I                0
Number of translation vectors              I                0
Atomic numbers                             I   N=          12
           6           6           6           6           1           1
           1           1           1           1           1          17
Nuclear charges                            R   N=          12
  6.00000000E+00  6.00000000E+00  6.00000000E+00  6.00000000E+00  1.00000000E+00
  1.00000000E+00  1.00000000E+00  1.00000000E+00  1.00000000E+00  1.00000000E+00
  1.00000000E+00  1.70000000E+01
Current cartesian coordinates              R   N=          36
 -1.54035025E+00  3.22397426E+00  3.00816647E-02 -1.17423821E-01  7.94101643E-01
  6.41388274E-01  2.29413641E+00  4.36118577E-01 -7.78208610E-01  4.36636533E+00
 -7.26614859E-01  2.83670727E-01  4.41863001E+00 -1.45356249E+00  2.28113788E+00
 -3.30760963E+00  3.33308738E+00  1.08975712E+00  6.07621637E+00 -1.01036646E+00
 -8.07755161E-01  2.27001644E+00  1.09793835E+00 -2.79249055E+00  2.03745139E-01
  6.00198839E-01  2.66571240E+00 -1.98308461E+00  3.33445490E+00 -1.98537941E+00
 -3.63561982E-01  4.85731921E+00  5.35059964E-01 -2.19592457E+00 -1.94850279E+00
 -1.20449093E-01
Number of symbols in /Mol/                 I                0
Force Field                                I                0
Atom Types                                 C   N=          12
                                                            
                                                            
                        
Int Atom Types                             I   N=          12
           0           0           0           0           0           0
           0           0           0           0           0           0
MM charges                                 R   N=          12
  0.00000000E+00  0.00000000E+00  0.00000000E+00  0.00000000E+00  0.00000000E+00
  0.00000000E+00  0.00000000E+00  0.00000000E+00  0.00000000E+00  0.00000000E+00
  0.00000000E+00  0.00000000E+00
Integer atomic weights                     I   N=          12
          12          12          12          12           1           1
           1           1           1           1           1          35
Real atomic weights                        R   N=          12
  1.20000000E+01  1.20000000E+01  1.20000000E+01  1.20000000E+01  1.00782504E+00
  1.00782504E+00  1.00782504E+00  1.00782504E+00  1.00782504E+00  1.00782504E+00
  1.00782504E+00  3.49688527E+01
Atom fragment info                         I   N=          12
           0           0           0           0           0           0
           0           0           0           0           0           0
Atom residue num                           I   N=          12
           0           0           0           0           0           0
           0           0           0           0           0           0
Nuclear spins                              I   N=          12
           0           0           0           0           1           1
           1           1           1           1           1           3
Nuclear ZEff                               R   N=          12
 -3.60000000E+00 -3.60000000E+00 -3.60000000E+00 -3.60000000E+00 -1.00000000E+00
 -1.00000000E+00 -1.00000000E+00 -1.00000000E+00 -1.00000000E+00 -1.00000000E+00
 -1.00000000E+00 -1.42400000E+01
Nuclear ZNuc                               R   N=          12
  6.00000000E+00  6.00000000E+00  6.00000000E+00  6.00000000E+00  1.00000000E+00
  1.00000000E+00  1.00000000E+00  1.00000000E+00  1.00000000E+00  1.00000000E+00
  1.00000000E+00  1.70000000E+01
Nuclear QMom                               R   N=          12
  0.00000000E+00  0.00000000E+00  0.00000000E+00  0.00000000E+00  0.00000000E+00
  0.00000000E+00  0.00000000E+00  0.00000000E+00  0.00000000E+00  0.00000000E+00
  0.00000000E+00 -8.16500000E+00
Nuclear GFac                               R   N=          12
  0.00000000E+00  0.00000000E+00  0.00000000E+00  0.00000000E+00  2.79284600E+00
  2.79284600E+00  2.79284600E+00  2.79284600E+00  2.79284600E+00  2.79284600E+00
  2.79284600E+00  8.21874000E-01
MicOpt                                     I   N=          12
          -1          -1          -1          -1          -1          -1
          -1          -1          -1          -1          -1          -1
Number of residues                         I                0
Number of secondary structures             I                0
SymInf integers                            I   N=          26
           1           1           1           1           1           0
           0           0           0           0           0           0
           0           0           0           0           0           0
           0           0           0           0           0           0
           0           0
RotTr to input orientation                 R   N=          12
 -9.89764597E-01 -1.42637551E-01  4.53564559E-03 -1.42188434E-01  9.88365377E-01
  5.40030569E-02 -1.21857388E-02  5.28053974E-02 -9.98530469E-01  1.29302609E-02
 -1.19497698E-03  2.74242922E-03
Number of contracted shells                I               72
Number of primitive shells                 I              126
Pure/Cartesian d shells                    I                0
Pure/Cartesian f shells                    I                0
Highest angular momentum                   I                2
Largest degree of contraction              I                6
Shell types                                I   N=          72
           0          -1          -1          -1          -1          -2
           0          -1          -1          -1          -1          -2
           0          -1          -1          -1          -1          -2
           0          -1          -1          -1          -1          -2
           0           0           0           0           1           0
           0           0           0           1           0           0
           0           0           1           0           0           0
           0           1           0           0           0           0
           1           0           0           0           0           1
           0           0           0           0           1           0
           0           0           0           0           0          -1
           1           1           1           1           1          -2
Number of primitives per shell             I   N=          72
           6           3           1           1           1           1
           6           3           1           1           1           1
           6           3           1           1           1           1
           6           3           1           1           1           1
           3           1           1           1           1           3
           1           1           1           1           3           1
           1           1           1           3           1           1
           1           1           3           1           1           1
           1           3           1           1           1           1
           3           1           1           1           1           6
           3           1           1           1           1           1
           5           2           1           1           1           1
Shell to atom map                          I   N=          72
           1           1           1           1           1           1
           2           2           2           2           2           2
           3           3           3           3           3           3
           4           4           4           4           4           4
           5           5           5           5           5           6
           6           6           6           6           7           7
           7           7           7           8           8           8
           8           8           9           9           9           9
           9          10          10          10          10          10
          11          11          11          11          11          12
          12          12          12          12          12          12
          12          12          12          12          12          12
Primitive exponents                        R   N=         126
  4.56324000E+03  6.82024000E+02  1.54973000E+02  4.44553000E+01  1.30290000E+01
  1.82773000E+00  2.09642000E+01  4.80331000E+00  1.45933000E+00  4.83456000E-01
  1.45585000E-01  4.38000000E-02  6.26000000E-01  4.56324000E+03  6.82024000E+02
  1.54973000E+02  4.44553000E+01  1.30290000E+01  1.82773000E+00  2.09642000E+01
  4.80331000E+00  1.45933000E+00  4.83456000E-01  1.45585000E-01  4.38000000E-02
  6.26000000E-01  4.56324000E+03  6.82024000E+02  1.54973000E+02  4.44553000E+01
  1.30290000E+01  1.82773000E+00  2.09642000E+01  4.80331000E+00  1.45933000E+00
  4.83456000E-01  1.45585000E-01  4.38000000E-02  6.26000000E-01  4.56324000E+03
  6.82024000E+02  1.54973000E+02  4.44553000E+01  1.30290000E+01  1.82773000E+00
  2.09642000E+01  4.80331000E+00  1.45933000E+00  4.83456000E-01  1.45585000E-01
  4.38000000E-02  6.26000000E-01  3.38650000E+01  5.09479000E+00  1.15879000E+00
  3.25840000E-01  1.02741000E-01  3.60000000E-02  7.50000000E-01  3.38650000E+01
  5.09479000E+00  1.15879000E+00  3.25840000E-01  1.02741000E-01  3.60000000E-02
  7.50000000E-01  3.38650000E+01  5.09479000E+00  1.15879000E+00  3.25840000E-01
  1.02741000E-01  3.60000000E-02  7.50000000E-01  3.38650000E+01  5.09479000E+00
  1.15879000E+00  3.25840000E-01  1.02741000E-01  3.60000000E-02  7.50000000E-01
  3.38650000E+01  5.09479000E+00  1.15879000E+00  3.25840000E-01  1.02741000E-01
  3.60000000E-02  7.50000000E-01  3.38650000E+01  5.09479000E+00  1.15879000E+00
  3.25840000E-01  1.02741000E-01  3.60000000E-02  7.50000000E-01  3.38650000E+01
  5.09479000E+00  1.15879000E+00  3.25840000E-01  1.02741000E-01  3.60000000E-02
  7.50000000E-01  1.05819000E+05  1.58720000E+04  3.61965000E+03  1.03080000E+03
  3.39908000E+02  1.24538000E+02  1.24538000E+02  4.95135000E+01  2.08056000E+01
  6.58346000E+00  2.56468000E+00  5.59763000E-01  1.83273000E-01  4.83000000E-02
  5.89776000E+02  1.39849000E+02  4.51413000E+01  1.68733000E+01  2.77152000E+00
  6.74110000E+00  2.77152000E+00  1.02387000E+00  3.81368000E-01  1.09437000E-01
  7.50000000E-01
Contraction coefficients                   R   N=         126
  1.96665025E-03  1.52306019E-02  7.61269097E-02  2.60801033E-01  6.16462078E-01
  2.21006028E-01  1.14660081E-01  9.19999648E-01 -3.03068213E-03  1.00000000E+00
  1.00000000E+00  1.00000000E+00  1.00000000E+00  1.96665025E-03  1.52306019E-02
  7.61269097E-02  2.60801033E-01  6.16462078E-01  2.21006028E-01  1.14660081E-01
  9.19999648E-01 -3.03068213E-03  1.00000000E+00  1.00000000E+00  1.00000000E+00
  1.00000000E+00  1.96665025E-03  1.52306019E-02  7.61269097E-02  2.60801033E-01
  6.16462078E-01  2.21006028E-01  1.14660081E-01  9.19999648E-01 -3.03068213E-03
  1.00000000E+00  1.00000000E+00  1.00000000E+00  1.00000000E+00  1.96665025E-03
  1.52306019E-02  7.61269097E-02  2.60801033E-01  6.16462078E-01  2.21006028E-01
  1.14660081E-01  9.19999648E-01 -3.03068213E-03  1.00000000E+00  1.00000000E+00
  1.00000000E+00  1.00000000E+00  2.54938145E-02  1.90373109E-01  8.52161486E-01
  1.00000000E+00  1.00000000E+00  1.00000000E+00  1.00000000E+00  2.54938145E-02
  1.90373109E-01  8.52161486E-01  1.00000000E+00  1.00000000E+00  1.00000000E+00
  1.00000000E+00  2.54938145E-02  1.90373109E-01  8.52161486E-01  1.00000000E+00
  1.00000000E+00  1.00000000E+00  1.00000000E+00  2.54938145E-02  1.90373109E-01
  8.52161486E-01  1.00000000E+00  1.00000000E+00  1.00000000E+00  1.00000000E+00
  2.54938145E-02  1.90373109E-01  8.52161486E-01  1.00000000E+00  1.00000000E+00
  1.00000000E+00  1.00000000E+00  2.54938145E-02  1.90373109E-01  8.52161486E-01
  1.00000000E+00  1.00000000E+00  1.00000000E+00  1.00000000E+00  2.54938145E-02
  1.90373109E-01  8.52161486E-01  1.00000000E+00  1.00000000E+00  1.00000000E+00
  1.00000000E+00  7.38000247E-04  5.71800191E-03  2.94950099E-02  1.17286039E-01
  3.62949121E-01  5.84149195E-01  1.34176973E-01  6.24249876E-01  2.91755942E-01
  1.00000000E+00  1.00000000E+00  1.00000000E+00  1.00000000E+00  1.00000000E+00
  3.66556935E-03  2.83679194E-02  1.24756603E-01  3.39654631E-01  7.47585963E-01
 -1.57224381E+00  9.92388882E-01  1.00000000E+00  1.00000000E+00  1.00000000E+00
  1.00000000E+00
P(S=P) Contraction coefficients            R   N=         126
  0.00000000E+00  0.00000000E+00  0.00000000E+00  0.00000000E+00  0.00000000E+00
  0.00000000E+00  4.02486927E-02  2.37593957E-01  8.15853851E-01  1.00000000E+00
  1.00000000E+00  1.00000000E+00  0.00000000E+00  0.00000000E+00  0.00000000E+00
  0.00000000E+00  0.00000000E+00  0.00000000E+00  0.00000000E+00  4.02486927E-02
  2.37593957E-01  8.15853851E-01  1.00000000E+00  1.00000000E+00  1.00000000E+00
  0.00000000E+00  0.00000000E+00  0.00000000E+00  0.00000000E+00  0.00000000E+00
  0.00000000E+00  0.00000000E+00  4.02486927E-02  2.37593957E-01  8.15853851E-01
  1.00000000E+00  1.00000000E+00  1.00000000E+00  0.00000000E+00  0.00000000E+00
  0.00000000E+00  0.00000000E+00  0.00000000E+00  0.00000000E+00  0.00000000E+00
  4.02486927E-02  2.37593957E-01  8.15853851E-01  1.00000000E+00  1.00000000E+00
  1.00000000E+00  0.00000000E+00  0.00000000E+00  0.00000000E+00  0.00000000E+00
  0.00000000E+00  0.00000000E+00  0.00000000E+00  0.00000000E+00  0.00000000E+00
  0.00000000E+00  0.00000000E+00  0.00000000E+00  0.00000000E+00  0.00000000E+00
  0.00000000E+00  0.00000000E+00  0.00000000E+00  0.00000000E+00  0.00000000E+00
  0.00000000E+00  0.00000000E+00  0.00000000E+00  0.00000000E+00  0.00000000E+00
  0.00000000E+00  0.00000000E+00  0.00000000E+00  0.00000000E+00  0.00000000E+00
  0.00000000E+00  0.00000000E+00  0.00000000E+00  0.00000000E+00  0.00000000E+00
  0.00000000E+00  0.00000000E+00  0.00000000E+00  0.00000000E+00  0.00000000E+00
  0.00000000E+00  0.00000000E+00  0.00000000E+00  0.00000000E+00  0.00000000E+00
  0.00000000E+00  0.00000000E+00  0.00000000E+00  0.00000000E+00  0.00000000E+00
  0.00000000E+00  0.00000000E+00  0.00000000E+00  0.00000000E+00  0.00000000E+00
  0.00000000E+00  0.00000000E+00  0.00000000E+00  0.00000000E+00  0.00000000E+00
  0.00000000E+00  0.00000000E+00  0.00000000E+00  0.00000000E+00  1.00000000E+00
  0.00000000E+00  0.00000000E+00  0.00000000E+00  0.00000000E+00  0.00000000E+00
  0.00000000E+00  0.00000000E+00  0.00000000E+00  0.00000000E+00  0.00000000E+00
  0.00000000E+00
Coordinates of each shell                  R   N=         216
 -1.54035025E+00  3.22397426E+00  3.00816647E-02 -1.54035025E+00  3.22397426E+00
  3.00816647E-02 -1.54035025E+00  3.22397426E+00  3.00816647E-02 -1.54035025E+00
  3.22397426E+00  3.00816647E-02 -1.54035025E+00  3.22397426E+00  3.00816647E-02
 -1.54035025E+00  3.22397426E+00  3.00816647E-02 -1.17423821E-01  7.94101643E-01
  6.41388274E-01 -1.17423821E-01  7.94101643E-01  6.41388274E-01 -1.17423821E-01
  7.94101643E-01  6.41388274E-01 -1.17423821E-01  7.94101643E-01  6.41388274E-01
 -1.17423821E-01  7.94101643E-01  6.41388274E-01 -1.17423821E-01  7.94101643E-01
  6.41388274E-01  2.29413641E+00  4.36118577E-01 -7.78208610E-01  2.29413641E+00
  4.36118577E-01 -7.78208610E-01  2.29413641E+00  4.36118577E-01 -7.78208610E-01
  2.29413641E+00  4.36118577E-01 -7.78208610E-01  2.29413641E+00  4.36118577E-01
 -7.78208610E-01  2.29413641E+00  4.36118577E-01 -7.78208610E-01  4.36636533E+00
 -7.26614859E-01  2.83670727E-01  4.36636533E+00 -7.26614859E-01  2.83670727E-01
  4.36636533E+00 -7.26614859E-01  2.83670727E-01  4.36636533E+00 -7.26614859E-01
  2.83670727E-01  4.36636533E+00 -7.26614859E-01  2.83670727E-01  4.36636533E+00
 -7.26614859E-01  2.83670727E-01  4.41863001E+00 -1.45356249E+00  2.28113788E+00
  4.41863001E+00 -1.45356249E+00  2.28113788E+00  4.41863001E+00 -1.45356249E+00
  2.28113788E+00  4.41863001E+00 -1.45356249E+00  2.28113788E+00  4.41863001E+00
 -1.45356249E+00  2.28113788E+00 -3.30760963E+00  3.33308738E+00  1.08975712E+00
 -3.30760963E+00  3.33308738E+00  1.08975712E+00 -3.30760963E+00  3.33308738E+00
  1.08975712E+00 -3.30760963E+00  3.33308738E+00  1.08975712E+00 -3.30760963E+00
  3.33308738E+00  1.08975712E+00  6.07621637E+00 -1.01036646E+00 -8.07755161E-01
  6.07621637E+00 -1.01036646E+00 -8.07755161E-01  6.07621637E+00 -1.01036646E+00
 -8.07755161E-01  6.07621637E+00 -1.01036646E+00 -8.07755161E-01  6.07621637E+00
 -1.01036646E+00 -8.07755161E-01  2.27001644E+00  1.09793835E+00 -2.79249055E+00
  2.27001644E+00  1.09793835E+00 -2.79249055E+00  2.27001644E+00  1.09793835E+00
 -2.79249055E+00  2.27001644E+00  1.09793835E+00 -2.79249055E+00  2.27001644E+00
  1.09793835E+00 -2.79249055E+00  2.03745139E-01  6.00198839E-01  2.66571240E+00
  2.03745139E-01  6.00198839E-01  2.66571240E+00  2.03745139E-01  6.00198839E-01
  2.66571240E+00  2.03745139E-01  6.00198839E-01  2.66571240E+00  2.03745139E-01
  6.00198839E-01  2.66571240E+00 -1.98308461E+00  3.33445490E+00 -1.98537941E+00
 -1.98308461E+00  3.33445490E+00 -1.98537941E+00 -1.98308461E+00  3.33445490E+00
 -1.98537941E+00 -1.98308461E+00  3.33445490E+00 -1.98537941E+00 -1.98308461E+00
  3.33445490E+00 -1.98537941E+00 -3.63561982E-01  4.85731921E+00  5.35059964E-01
 -3.63561982E-01  4.85731921E+00  5.35059964E-01 -3.63561982E-01  4.85731921E+00
  5.35059964E-01 -3.63561982E-01  4.85731921E+00  5.35059964E-01 -3.63561982E-01
  4.85731921E+00  5.35059964E-01 -2.19592457E+00 -1.94850279E+00 -1.20449093E-01
 -2.19592457E+00 -1.94850279E+00 -1.20449093E-01 -2.19592457E+00 -1.94850279E+00
 -1.20449093E-01 -2.19592457E+00 -1.94850279E+00 -1.20449093E-01 -2.19592457E+00
 -1.94850279E+00 -1.20449093E-01 -2.19592457E+00 -1.94850279E+00 -1.20449093E-01
 -2.19592457E+00 -1.94850279E+00 -1.20449093E-01 -2.19592457E+00 -1.94850279E+00
 -1.20449093E-01 -2.19592457E+00 -1.94850279E+00 -1.20449093E-01 -2.19592457E+00
 -1.94850279E+00 -1.20449093E-01 -2.19592457E+00 -1.94850279E+00 -1.20449093E-01
 -2.19592457E+00 -1.94850279E+00 -1.20449093E-01 -2.19592457E+00 -1.94850279E+00
 -1.20449093E-01
Constraint Structure                       R   N=          36
 -1.54035025E+00  3.22397426E+00  3.00816647E-02 -1.17423821E-01  7.94101643E-01
  6.41388274E-01  2.29413641E+00  4.36118577E-01 -7.78208610E-01  4.36636533E+00
 -7.26614859E-01  2.83670727E-01  4.41863001E+00 -1.45356249E+00  2.28113788E+00
 -3.30760963E+00  3.33308738E+00  1.08975712E+00  6.07621637E+00 -1.01036646E+00
 -8.07755161E-01  2.27001644E+00  1.09793835E+00 -2.79249055E+00  2.03745139E-01
  6.00198839E-01  2.66571240E+00 -1.98308461E+00  3.33445490E+00 -1.98537941E+00
 -3.63561982E-01  4.85731921E+00  5.35059964E-01 -2.19592457E+00 -1.94850279E+00
 -1.20449093E-01
Num ILSW                                   I              100
ILSW                                       I   N=         100
           0           0           0           0           2           0
           0           0           0           0         402          -1
           5           0           0           0           0           0
           0           0           0           0           0           0
           1           0           0           0           0           0
           0           0      100000           0          -1           0
           0           0           0           0           0           0
           0           0           0           1           0           0
           0           0           1           0           0           0
           0           0           4          41           0           0
           0           0           5           0           0           0
           0           0           0           0           0           0
           0           0           0           0           0           0
           0           0           0           0           0           0
           0           0           0           0           0           0
           0           0           0           0           0           0
           0           0           0           0
Num RLSW                                   I               41
RLSW                                       R   N=          41
  8.00000000E-01  7.20000000E-01  1.00000000E+00  8.10000000E-01  2.00000000E-01
  0.00000000E+00  0.00000000E+00  1.00000000E+00  0.00000000E+00  0.00000000E+00
  0.00000000E+00  0.00000000E+00  1.00000000E+00  0.00000000E+00  0.00000000E+00
  0.00000000E+00  0.00000000E+00  1.00000000E+00  0.00000000E+00  0.00000000E+00
  0.00000000E+00  0.00000000E+00  1.00000000E+00  0.00000000E+00  0.00000000E+00
  0.00000000E+00  0.00000000E+00  1.00000000E+00  0.00000000E+00  0.00000000E+00
  0.00000000E+00  0.00000000E+00  0.00000000E+00  0.00000000E+00  0.00000000E+00
  0.00000000E+00  0.00000000E+00  0.00000000E+00  1.00000000E+00  1.00000000E+00
  0.00000000E+00
MxBond                                     I                4
NBond                                      I   N=          12
           4           4           3           3           1           1
           1           1           1           1           1           1
IBond                                      I   N=          48
           2           6          10          11           1           3
           9          12           2           4           8           0
           3           5           7           0           4           0
           0           0           1           0           0           0
           4           0           0           0           3           0
           0           0           2           0           0           0
           1           0           0           0           1           0
           0           0           2           0           0           0
RBond                                      R   N=          48
  1.00000000E+00  1.00000000E+00  1.00000000E+00  1.00000000E+00  1.00000000E+00
  1.00000000E+00  1.00000000E+00  1.00000000E+00  1.00000000E+00  1.50000000E+00
  1.00000000E+00  0.00000000E+00  1.50000000E+00  1.00000000E+00  1.00000000E+00
  0.00000000E+00  1.00000000E+00  0.00000000E+00  0.00000000E+00  0.00000000E+00
  1.00000000E+00  0.00000000E+00  0.00000000E+00  0.00000000E+00  1.00000000E+00
  0.00000000E+00  0.00000000E+00  0.00000000E+00  1.00000000E+00  0.00000000E+00
  0.00000000E+00  0.00000000E+00  1.00000000E+00  0.00000000E+00  0.00000000E+00
  0.00000000E+00  1.00000000E+00  0.00000000E+00  0.00000000E+00  0.00000000E+00
  1.00000000E+00  0.00000000E+00  0.00000000E+00  0.00000000E+00  1.00000000E+00
  0.00000000E+00  0.00000000E+00  0.00000000E+00
Virial Ratio                               R      2.003432014437480E+00
SCF Energy                                 R     -6.168900493830074E+02
Total Energy                               R     -6.168900493830074E+02
RMS Density                                R      5.278742927755240E-12
Nuclear derivative order                   I                0
External E-field                           R   N=          35
  0.00000000E+00  0.00000000E+00  0.00000000E+00  0.00000000E+00  0.00000000E+00
  0.00000000E+00  0.00000000E+00  0.00000000E+00  0.00000000E+00  0.00000000E+00
  0.00000000E+00  0.00000000E+00  0.00000000E+00  0.00000000E+00  0.00000000E+00
  0.00000000E+00  0.00000000E+00  0.00000000E+00  0.00000000E+00  0.00000000E+00
  0.00000000E+00  0.00000000E+00  0.00000000E+00  0.00000000E+00  0.00000000E+00
  0.00000000E+00  0.00000000E+00  0.00000000E+00  0.00000000E+00  0.00000000E+00
  0.00000000E+00  0.00000000E+00  0.00000000E+00  0.00000000E+00  0.00000000E+00
IOpCl                                      I                0
IROHF                                      I                0
Alpha Orbital Energies                     R   N=         167
 -1.01531795E+02 -1.02478324E+01 -1.02044730E+01 -1.01953698E+01 -1.01826361E+01
 -9.44619462E+00 -7.21053797E+00 -7.20112493E+00 -7.20093624E+00 -8.64196378E-01
 -7.77198616E-01 -7.40392129E-01 -6.39620700E-01 -5.74151953E-01 -4.81495876E-01
 -4.69464104E-01 -4.48755561E-01 -4.05578362E-01 -4.01874080E-01 -3.80029774E-01
 -3.67278426E-01 -3.04973537E-01 -2.97608325E-01 -2.71738377E-01 -4.49607594E-02
 -7.76917703E-03  4.64322251E-03  6.80787358E-03  2.03384179E-02  3.10046626E-02
  3.65255592E-02  3.93262382E-02  6.26065193E-02  6.87475271E-02  7.40950499E-02
  8.31480615E-02  8.92407527E-02  1.00602487E-01  1.06512958E-01  1.15105906E-01
  1.18508098E-01  1.22553090E-01  1.27424175E-01  1.29726217E-01  1.38190532E-01
  1.41881541E-01  1.47260742E-01  1.51751596E-01  1.59096935E-01  1.60967203E-01
  1.69787494E-01  1.82003750E-01  1.98881533E-01  2.05538289E-01  2.21418122E-01
  2.29591973E-01  2.44367412E-01  2.57834073E-01  2.63603299E-01  2.89632342E-01
  3.34280596E-01  3.41876651E-01  3.64354915E-01  4.29675735E-01  4.31781605E-01
  4.48446282E-01  4.67427614E-01  4.74203010E-01  4.90294176E-01  4.99430676E-01
  5.21384331E-01  5.36275113E-01  5.53718991E-01  5.90525051E-01  5.97553576E-01
  6.11969526E-01  6.30256952E-01  6.46620767E-01  6.56108293E-01  6.62304461E-01
  6.81971519E-01  6.94396734E-01  7.23502410E-01  7.32103209E-01  7.67126703E-01
  8.13128500E-01  8.20140455E-01  8.43080137E-01  8.90317225E-01  9.07532063E-01
  9.45200835E-01  9.61877052E-01  1.01624518E+00  1.03564034E+00  1.05756358E+00
  1.07877179E+00  1.13530967E+00  1.14125692E+00  1.21389536E+00  1.31479821E+00
  1.39153869E+00  1.43347078E+00  1.44698472E+00  1.46184121E+00  1.49293700E+00
  1.52654910E+00  1.54387173E+00  1.57517275E+00  1.58739062E+00  1.61772538E+00
  1.62289146E+00  1.67446799E+00  1.69801523E+00  1.72098524E+00  1.75613047E+00
  1.78500641E+00  1.84369024E+00  1.88914914E+00  1.94397486E+00  1.97274752E+00
  2.00271372E+00  2.05741118E+00  2.09743384E+00  2.14031253E+00  2.14970717E+00
  2.19728466E+00  2.23667615E+00  2.30296108E+00  2.31631836E+00  2.34366437E+00
  2.36442592E+00  2.43545248E+00  2.44854991E+00  2.47655949E+00  2.53177639E+00
  2.56334311E+00  2.57412865E+00  2.57857893E+00  2.60265873E+00  2.65059893E+00
  2.71173052E+00  2.73153288E+00  2.74085799E+00  2.74449182E+00  2.81482819E+00
  2.86798870E+00  2.91029140E+00  3.04205409E+00  3.07265949E+00  3.17601838E+00
  3.35176647E+00  3.44518299E+00  3.67302927E+00  3.78460274E+00  3.79111285E+00
  3.90062165E+00  4.10723089E+00  4.29657377E+00  9.75922652E+00  2.37011751E+01
  2.37841323E+01  2.39390723E+01  2.40746482E+01  2.59276856E+01  2.59939063E+01
  2.64466193E+01  2.15750227E+02
Alpha MO coefficients                      R   N=       27889
 -2.91800023E-08  2.46366701E-07  3.11339752E-06 -1.88239780E-06  4.40411515E-07
 -9.19980945E-06 -2.41153245E-05  1.32836930E-05 -5.97551241E-06  8.73568332E-05
  4.24868930E-06  6.32693587E-06 -2.51668946E-05 -1.37579640E-03  1.31702913E-04
  5.11935240E-04 -8.78324236E-05  7.82068101E-06 -2.79897951E-06  2.66109915E-06
  1.28622161E-05  3.24165281E-06  1.37332472E-06 -2.82178484E-06 -7.47179627E-06
 -1.40382668E-05 -5.96766652E-06 -1.09336848E-05  3.56547686E-06  2.33955020E-05
  2.09054129E-05  5.72323170E-05 -1.29568261E-04 -1.77791070E-04 -1.93441113E-05
  3.63673209E-03  3.52529926E-04  5.45577992E-04 -8.37627849E-04  9.45061180E-06
 -6.73118162E-07 -3.23727572E-06 -1.51756967E-06 -3.58489338E-06 -1.12394011E-06
  3.25052694E-06 -2.31727905E-06 -4.30167817E-06  4.73392896E-06 -2.34546854E-05
  1.89853616E-05  1.96904140E-05 -2.38582013E-05  1.36743553E-04  2.72090627E-05
 -8.10063184E-05  1.77867596E-04 -1.45894384E-03  1.22130852E-03 -4.63584947E-04
  2.03705100E-04  6.26144106E-07  2.50537432E-06  1.10257757E-07  1.37914937E-06
 -3.04215383E-06  5.76071176E-07 -1.60772069E-06 -1.28910185E-06  1.11426131E-06
 -1.47745708E-06  1.90898967E-05  1.64869132E-06 -4.22049962E-06  2.89980108E-06
 -1.95604723E-04  1.60409066E-04 -1.84138676E-05 -7.33473854E-05 -1.52158535E-03
  3.21901295E-04 -1.85807307E-04  8.02478181E-05 -2.54509008E-06 -1.99257913E-06
  7.02186623E-06 -4.84824030E-06  8.62809131E-07 -3.71933988E-06  4.94426187E-05
  6.36285271E-05  3.33834279E-05 -6.49991006E-06  4.69820411E-06 -5.45541402E-06
  1.24535092E-05 -8.43668578E-05  9.04372740E-05  2.90174482E-04 -1.22954401E-05
  1.18030998E-05  1.06124118E-05  3.49120903E-06 -2.94221727E-05 -6.35428455E-05
 -1.48508834E-04  3.61784172E-07 -3.14192046E-07 -3.40936572E-06  4.64393371E-06
 -5.75728327E-06  1.70237335E-04  2.77471803E-04  7.59554472E-06  5.59749196E-06
 -5.12212394E-06 -1.97438077E-06 -4.54040103E-05 -9.17917902E-05  1.39656592E-04
  5.18149267E-06  4.52444267E-06  1.35200571E-05  1.02414468E-05 -6.96817159E-05
 -5.89624321E-05 -1.12544340E-05 -1.75606762E-06  1.34378857E-05 -1.60893197E-05
 -6.62153670E-06  2.47178006E-05 -1.63225265E-04 -3.58745488E-04  1.40214054E-06
 -3.16308279E-06  2.23703822E-06  4.11609634E-01  6.54076203E-01  1.50041467E-02