 Entering Gaussian System, Link 0=g09
 Input=input.dat
 Output=output.dat
 Initial command:
 /cerebro/home/software/apps/g09/l1.exe /scratch/crawdad/Gau-31999.inp -scrdir=/scratch/crawdad/
 Entering Link 1 = /cerebro/home/software/apps/g09/l1.exe PID=     32004.
  
 Copyright (c) 1988,1990,1992,1993,1995,1998,2003,2009, Gaussian, Inc.
                  All Rights Reserved.
  
 This is part of the Gaussian(R) 09 program.  It is based on
 the Gaussian(R) 03 system (copyright 2003, Gaussian, Inc.),
 the Gaussian(R) 98 system (copyright 1998, Gaussian, Inc.),
 the Gaussian(R) 94 system (copyright 1995, Gaussian, Inc.),
 the Gaussian 92(TM) system (copyright 1992, Gaussian, Inc.),
 the Gaussian 90(TM) system (copyright 1990, Gaussian, Inc.),
 the Gaussian 88(TM) system (copyright 1988, Gaussian, Inc.),
 the Gaussian 86(TM) system (copyright 1986, Carnegie Mellon
 University), and the Gaussian 82(TM) system (copyright 1983,
 Carnegie Mellon University). Gaussian is a federally registered
 trademark of Gaussian, Inc.
  
 This software contains proprietary and confidential information,
 including trade secrets, belonging to Gaussian, Inc.
  
 This software is provided under written license and may be
 used, copied, transmitted, or stored only in accord with that
 written license.
  
 The following legend is applicable only to US Government
 contracts under FAR:
  
                    RESTRICTED RIGHTS LEGEND
  
 Use, reproduction and disclosure by the US Government is
 subject to restrictions as set forth in subparagraphs (a)
 and (c) of the Commercial Computer Software - Restricted
 Rights clause in FAR 52.227-19.
  
 Gaussian, Inc.
 340 Quinnipiac St., Bldg. 40, Wallingford CT 06492
  
  
 ---------------------------------------------------------------
 Warning -- This program may not be used in any manner that
 competes with the business of Gaussian, Inc. or will provide
 assistance to any competitor of Gaussian, Inc.  The licensee
 of this program is prohibited from giving any competitor of
 Gaussian, Inc. access to this program.  By using this program,
 the user acknowledges that Gaussian, Inc. is engaged in the
 business of creating and licensing software in the field of
 computational chemistry and represents and warrants to the
 licensee that it is not a competitor of Gaussian, Inc. and that
 it will not use this program in any manner prohibited above.
 ---------------------------------------------------------------
  

 Cite this work as:
 Gaussian 09, Revision A.02,
 M. J. Frisch, G. W. Trucks, H. B. Schlegel, G. E. Scuseria, 
 M. A. Robb, J. R. Cheeseman, G. Scalmani, V. Barone, B. Mennucci, 
 G. A. Petersson, H. Nakatsuji, M. Caricato, X. Li, H. P. Hratchian, 
 A. F. Izmaylov, J. Bloino, G. Zheng, J. L. Sonnenberg, M. Hada, 
 M. Ehara, K. Toyota, R. Fukuda, J. Hasegawa, M. Ishida, T. Nakajima, 
 Y. Honda, O. Kitao, H. Nakai, T. Vreven, J. A. Montgomery, Jr., 
 J. E. Peralta, F. Ogliaro, M. Bearpark, J. J. Heyd, E. Brothers, 
 K. N. Kudin, V. N. Staroverov, R. Kobayashi, J. Normand, 
 K. Raghavachari, A. Rendell, J. C. Burant, S. S. Iyengar, J. Tomasi, 
 M. Cossi, N. Rega, J. M. Millam, M. Klene, J. E. Knox, J. B. Cross, 
 V. Bakken, C. Adamo, J. Jaramillo, R. Gomperts, R. E. Stratmann, 
 O. Yazyev, A. J. Austin, R. Cammi, C. Pomelli, J. W. Ochterski, 
 R. L. Martin, K. Morokuma, V. G. Zakrzewski, G. A. Voth, 
 P. Salvador, J. J. Dannenberg, S. Dapprich, A. D. Daniels, 
 O. Farkas, J. B. Foresman, J. V. Ortiz, J. Cioslowski, 
 and D. J. Fox, Gaussian, Inc., Wallingford CT, 2009.
 
 ******************************************
 Gaussian 09:  EM64L-G09RevA.02 11-Jun-2009
                10-Jul-2013 
 ******************************************
 %chk=vibave
 %mem=1000mb
 %nproc=1
 Will use up to    1 processors via shared memory.
 ----------------------------------------------------------------------
 #P B3LYP/6-311++G** scf(conver=11) int=ultrafine polar=optrot cphf(rdf
 req,conver=11)
 ----------------------------------------------------------------------
 1/38=1,83=21/1;
 2/12=2,17=6,18=5,40=1/2;
 3/5=4,6=6,7=1111,11=2,16=1,25=1,30=1,36=2,74=-5,75=-5/1,2,3;
 4//1;
 5/5=2,6=11,38=5,96=-2,98=1/2;
 8/6=4,10=90,11=11/1;
 10/6=1,7=11,13=10,46=8,60=-2,72=3/2;
 6/7=2,8=2,9=2,10=2,28=1/1;
 99/5=1,9=1/99;
 Leave Link    1 at Wed Jul 10 16:50:10 2013, MaxMem=  131072000 cpu:       0.1
 (Enter /cerebro/home/software/apps/g09/l101.exe)
 -----------------------------
 (R)-3-chloro-1-butene tau=120
 -----------------------------
 Symbolic Z-matrix:
 Charge =  0 Multiplicity = 1
 C                     0.46358   1.75486   0.03786 
 C                     0.0035    0.35091  -0.3248 
 C                    -1.2049   -0.09663   0.42647 
 C                    -2.33179  -0.49766  -0.15517 
 H                    -2.43269  -0.55374  -1.23481 
 H                     1.40788   2.02122  -0.44806 
 H                    -3.20176  -0.78954   0.4216 
 H                    -1.1327   -0.06337   1.5107 
 H                    -0.15178   0.25433  -1.39891 
 H                     0.74325   1.84035   1.09414 
 H                    -0.34246   2.44408  -0.22651 
 Cl                    1.38607  -0.83735   0.02286 
 
 NAtoms=     12 NQM=     12 NQMF=      0 NMic=      0 NMicF=      0 NTot=     12.
                    Isotopes and Nuclear Properties:
 (Nuclear quadrupole moments (NQMom) in fm**2, nuclear magnetic moments (NMagM)
  in nuclear magnetons)

  Atom         1           2           3           4           5           6           7           8           9          10
 IAtWgt=          12          12          12          12           1           1           1           1           1           1
 AtmWgt=  12.0000000  12.0000000  12.0000000  12.0000000   1.0078250   1.0078250   1.0078250   1.0078250   1.0078250   1.0078250
 NucSpn=           0           0           0           0           1           1           1           1           1           1
 AtZEff=   0.0000000   0.0000000   0.0000000   0.0000000   0.0000000   0.0000000   0.0000000   0.0000000   0.0000000   0.0000000
 NQMom=    0.0000000   0.0000000   0.0000000   0.0000000   0.0000000   0.0000000   0.0000000   0.0000000   0.0000000   0.0000000
 NMagM=    0.0000000   0.0000000   0.0000000   0.0000000   2.7928460   2.7928460   2.7928460   2.7928460   2.7928460   2.7928460

  Atom        11          12
 IAtWgt=           1          35
 AtmWgt=   1.0078250  34.9688527
 NucSpn=           1           3
 AtZEff=   0.0000000   0.0000000
 NQMom=    0.0000000  -8.1650000
 NMagM=    2.7928460   0.8218740
 Using perturbation frequencies:    0.071980    0.077357    0.104503    0.128347
 Leave Link  101 at Wed Jul 10 16:50:11 2013, MaxMem=  131072000 cpu:       0.2
 (Enter /cerebro/home/software/apps/g09/l202.exe)
                          Input orientation:                          
 ---------------------------------------------------------------------
 Center     Atomic      Atomic             Coordinates (Angstroms)
 Number     Number       Type             X           Y           Z
 ---------------------------------------------------------------------
      1          6           0        0.463577    1.754856    0.037862
      2          6           0        0.003503    0.350912   -0.324795
      3          6           0       -1.204901   -0.096630    0.426471
      4          6           0       -2.331790   -0.497662   -0.155166
      5          1           0       -2.432690   -0.553744   -1.234807
      6          1           0        1.407878    2.021219   -0.448058
      7          1           0       -3.201762   -0.789540    0.421603
      8          1           0       -1.132699   -0.063366    1.510695
      9          1           0       -0.151783    0.254327   -1.398913
     10          1           0        0.743253    1.840352    1.094137
     11          1           0       -0.342457    2.444078   -0.226511
     12         17           0        1.386067   -0.837347    0.022858
 ---------------------------------------------------------------------
                    Distance matrix (angstroms):
                    1          2          3          4          5
     1  C    0.000000
     2  C    1.521264   0.000000
     3  C    2.522466   1.491622   0.000000
     4  C    3.595159   2.490471   1.330040   0.000000
     5  H    3.916335   2.753463   2.115718   1.085795   0.000000
     6  H    1.094885   2.185723   3.475155   4.518369   4.690348
     7  H    4.478383   3.483025   2.113670   1.083839   1.841403
     8  H    2.832536   2.198092   1.087135   2.097981   3.077049
     9  H    2.166697   1.089574   2.136412   2.620080   2.425375
    10  H    1.096013   2.186099   2.827186   4.059921   4.608936
    11  H    1.092982   2.123838   2.761411   3.551953   3.791131
    12  Cl   2.751495   1.855885   2.724827   3.737584   4.030515
                    6          7          8          9         10
     6  H    0.000000
     7  H    5.468588   0.000000
     8  H    3.825799   2.448362   0.000000
     9  H    2.541373   3.702203   3.086899   0.000000
    10  H    1.689025   4.788714   2.704969   3.087372   0.000000
    11  H    1.814267   4.364855   3.151133   2.491163   1.813108
    12  Cl   2.897177   4.605373   3.026035   2.361815   2.954814
                   11         12
    11  H    0.000000
    12  Cl   3.717221   0.000000
 Stoichiometry    C4H7Cl
 Framework group  C1[X(C4H7Cl)]
 Deg. of freedom    30
 Full point group                 C1      NOp   1
 Largest Abelian subgroup         C1      NOp   1
 Largest concise Abelian subgroup C1      NOp   1
                         Standard orientation:                         
 ---------------------------------------------------------------------
 Center     Atomic      Atomic             Coordinates (Angstroms)
 Number     Number       Type             X           Y           Z
 ---------------------------------------------------------------------
      1          6           0        0.466680    1.754176    0.034101
      2          6           0        0.002996    0.350664   -0.325617
      3          6           0       -1.205144   -0.093104    0.428308
      4          6           0       -2.333838   -0.492612   -0.150872
      5          1           0       -2.436615   -0.550158   -1.230259
      6          1           0        1.410760    2.017747   -0.453767
      7          1           0       -3.203497   -0.781716    0.427764
      8          1           0       -1.131107   -0.058306    1.512360
      9          1           0       -0.154245    0.252740   -1.399329
     10          1           0        0.748257    1.840715    1.089786
     11          1           0       -0.338298    2.444721   -0.230038
     12         17           0        1.383564   -0.840029    0.021645
 ---------------------------------------------------------------------
 Rotational constants (GHZ):      5.5672853      2.7450211      2.0019221
 Leave Link  202 at Wed Jul 10 16:50:11 2013, MaxMem=  131072000 cpu:       0.0
 (Enter /cerebro/home/software/apps/g09/l301.exe)
 Standard basis: 6-311++G(d,p) (5D, 7F)
 Ernie: Thresh=  0.10000D-02 Tol=  0.10000D-05 Strict=F.
 There are   167 symmetry adapted basis functions of A   symmetry.
 Integral buffers will be    131072 words long.
 Raffenetti 2 integral format.
 Two-electron integral symmetry is turned on.
   167 basis functions,   260 primitive gaussians,   172 cartesian basis functions
    24 alpha electrons       24 beta electrons
       nuclear repulsion energy       211.6851291456 Hartrees.
 IExCor=  402 DFT=T Ex+Corr=B3LYP ExCW=0 ScaHFX=  0.200000
 ScaDFX=  0.800000  0.720000  1.000000  0.810000 ScalE2=  1.000000  1.000000
 IRadAn=      5 IRanWt=     -1 IRanGd=            0 ICorTp=0
 NAtoms=   12 NActive=   12 NUniq=   12 SFac= 7.50D-01 NAtFMM=   80 NAOKFM=F Big=F
 Leave Link  301 at Wed Jul 10 16:50:11 2013, MaxMem=  131072000 cpu:       0.1
 (Enter /cerebro/home/software/apps/g09/l302.exe)
 NPDir=0 NMtPBC=     1 NCelOv=     1 NCel=       1 NClECP=     1 NCelD=      1
         NCelK=      1 NCelE2=     1 NClLst=     1 CellRange=     0.0.
 One-electron integrals computed using PRISM.
 NBasis=   167 RedAO= T  NBF=   167
 NBsUse=   167 1.00D-06 NBFU=   167
 Precomputing XC quadrature grid using
 IXCGrd= 2 IRadAn=           5 IRanWt=          -1 IRanGd=           0 AccXCQ= 1.00D-10.
 NRdTot=    1019 NPtTot=      274288 NUsed=      281590 NTot=      281622
 NSgBfM=   172   172   172   172   172 NAtAll=    12    12.
 Leave Link  302 at Wed Jul 10 16:50:12 2013, MaxMem=  131072000 cpu:       0.7
 (Enter /cerebro/home/software/apps/g09/l303.exe)
 DipDrv:  MaxL=2.
 Leave Link  303 at Wed Jul 10 16:50:12 2013, MaxMem=  131072000 cpu:       0.1
 (Enter /cerebro/home/software/apps/g09/l401.exe)
 Harris functional with IExCor=  402 diagonalized for initial guess.
 ExpMin= 3.60D-02 ExpMax= 1.06D+05 ExpMxC= 3.62D+03 IAcc=3 IRadAn=         5 AccDes= 0.00D+00
 HarFok:  IExCor=  402 AccDes= 0.00D+00 IRadAn=         5 IDoV= 1
 ScaDFX=  1.000000  1.000000  1.000000  1.000000
 FoFCou: FMM=F IPFlag=           0 FMFlag=      100000 FMFlg1=           0
         NFxFlg=           0 DoJE=T BraDBF=F KetDBF=T FulRan=T
         Omega=  0.000000  0.000000  1.000000  0.000000  0.000000 ICntrl=     500 IOpCl=  0
         NMat0=    1 NMatS0=    1 NMatT0=    0 NMatD0=    1 NMtDS0=    0 NMtDT0=    0
         I1Cent=           4 NGrid=           0.
 Petite list used in FoFCou.
 Harris En= -616.912322140925    
 Initial guess orbital symmetries:
       Occupied  (A) (A) (A) (A) (A) (A) (A) (A) (A) (A) (A) (A)
                 (A) (A) (A) (A) (A) (A) (A) (A) (A) (A) (A) (A)
       Virtual   (A) (A) (A) (A) (A) (A) (A) (A) (A) (A) (A) (A)
                 (A) (A) (A) (A) (A) (A) (A) (A) (A) (A) (A) (A)
                 (A) (A) (A) (A) (A) (A) (A) (A) (A) (A) (A) (A)
                 (A) (A) (A) (A) (A) (A) (A) (A) (A) (A) (A) (A)
                 (A) (A) (A) (A) (A) (A) (A) (A) (A) (A) (A) (A)
                 (A) (A) (A) (A) (A) (A) (A) (A) (A) (A) (A) (A)
                 (A) (A) (A) (A) (A) (A) (A) (A) (A) (A) (A) (A)
                 (A) (A) (A) (A) (A) (A) (A) (A) (A) (A) (A) (A)
                 (A) (A) (A) (A) (A) (A) (A) (A) (A) (A) (A) (A)
                 (A) (A) (A) (A) (A) (A) (A) (A) (A) (A) (A) (A)
                 (A) (A) (A) (A) (A) (A) (A) (A) (A) (A) (A) (A)
                 (A) (A) (A) (A) (A) (A) (A) (A) (A) (A) (A)
 The electronic state of the initial guess is 1-A.
 Leave Link  401 at Wed Jul 10 16:50:20 2013, MaxMem=  131072000 cpu:       7.5
 (Enter /cerebro/home/software/apps/g09/l502.exe)
 Closed shell SCF:
 Requested convergence on RMS density matrix=1.00D-11 within 128 cycles.
 Requested convergence on MAX density matrix=1.00D-09.
 Requested convergence on             energy=1.00D-09.
 No special actions if energy rises.
 Using DIIS extrapolation, IDIIS=  1040.
 Integral symmetry usage will be decided dynamically.
       281469 words used for storage of precomputed grid.
 Keep R1 ints in memory in canonical form, NReq=113664361.
 IEnd=      390694 IEndB=      390694 NGot=   131072000 MDV=    20042794
 LenX=    20042794 LenY=    20012769
 Symmetry not used in FoFDir.
 MinBra= 0 MaxBra= 2 Meth= 1.
 IRaf=       0 NMat=   1 IRICut=       1 DoRegI=T DoRafI=F ISym2E= 0 JSym2E=0.

 Cycle   1  Pass 1  IDiag  1:
 E= -616.721664540612    
 DIIS: error= 2.49D-02 at cycle   1 NSaved=   1.
 NSaved= 1 IEnMin= 1 EnMin= -616.721664540612     IErMin= 1 ErrMin= 2.49D-02
 ErrMax= 2.49D-02 EMaxC= 1.00D-01 BMatC= 2.04D-01 BMatP= 2.04D-01
 IDIUse=3 WtCom= 7.51D-01 WtEn= 2.49D-01
 Coeff-Com:  0.100D+01
 Coeff-En:   0.100D+01
 Coeff:      0.100D+01
 Gap=     0.394 Goal=   None    Shift=    0.000
 GapD=    0.394 DampG=1.000 DampE=0.500 DampFc=0.5000 IDamp=-1.
 Damping current iteration by 5.00D-01
 RMSDP=6.49D-03 MaxDP=1.33D-01              OVMax= 2.21D-01

 Cycle   2  Pass 1  IDiag  1:
 E= -616.792953081814     Delta-E=       -0.071288541202 Rises=F Damp=T
 DIIS: error= 6.12D-03 at cycle   2 NSaved=   2.
 NSaved= 2 IEnMin= 2 EnMin= -616.792953081814     IErMin= 2 ErrMin= 6.12D-03
 ErrMax= 6.12D-03 EMaxC= 1.00D-01 BMatC= 1.29D-02 BMatP= 2.04D-01
 IDIUse=3 WtCom= 9.39D-01 WtEn= 6.12D-02
 Coeff-Com:  0.391D-01 0.961D+00
 Coeff-En:   0.181D+00 0.819D+00
 Coeff:      0.478D-01 0.952D+00
 Gap=     0.287 Goal=   None    Shift=    0.000
 RMSDP=4.42D-03 MaxDP=1.98D-01 DE=-7.13D-02 OVMax= 1.26D-01

 Cycle   3  Pass 1  IDiag  1:
 E= -616.887926111308     Delta-E=       -0.094973029494 Rises=F Damp=F
 DIIS: error= 6.31D-03 at cycle   3 NSaved=   3.
 NSaved= 3 IEnMin= 3 EnMin= -616.887926111308     IErMin= 2 ErrMin= 6.12D-03
 ErrMax= 6.31D-03 EMaxC= 1.00D-01 BMatC= 5.33D-03 BMatP= 1.29D-02
 IDIUse=3 WtCom= 9.37D-01 WtEn= 6.31D-02
 Coeff-Com: -0.624D-01 0.351D+00 0.711D+00
 Coeff-En:   0.000D+00 0.000D+00 0.100D+01
 Coeff:     -0.585D-01 0.329D+00 0.729D+00
 Gap=     0.259 Goal=   None    Shift=    0.000
 RMSDP=1.88D-03 MaxDP=5.72D-02 DE=-9.50D-02 OVMax= 3.49D-02

 Cycle   4  Pass 1  IDiag  1:
 E= -616.891958175910     Delta-E=       -0.004032064602 Rises=F Damp=F
 DIIS: error= 3.39D-03 at cycle   4 NSaved=   4.
 NSaved= 4 IEnMin= 4 EnMin= -616.891958175910     IErMin= 4 ErrMin= 3.39D-03
 ErrMax= 3.39D-03 EMaxC= 1.00D-01 BMatC= 2.04D-03 BMatP= 5.33D-03
 IDIUse=3 WtCom= 9.66D-01 WtEn= 3.39D-02
 Coeff-Com: -0.375D-01 0.126D+00 0.444D+00 0.468D+00
 Coeff-En:   0.000D+00 0.000D+00 0.248D+00 0.752D+00
 Coeff:     -0.363D-01 0.122D+00 0.437D+00 0.477D+00
 Gap=     0.247 Goal=   None    Shift=    0.000
 RMSDP=5.72D-04 MaxDP=1.72D-02 DE=-4.03D-03 OVMax= 1.35D-02

 Cycle   5  Pass 1  IDiag  1:
 E= -616.893873786564     Delta-E=       -0.001915610655 Rises=F Damp=F
 DIIS: error= 5.94D-04 at cycle   5 NSaved=   5.
 NSaved= 5 IEnMin= 5 EnMin= -616.893873786564     IErMin= 5 ErrMin= 5.94D-04
 ErrMax= 5.94D-04 EMaxC= 1.00D-01 BMatC= 7.86D-05 BMatP= 2.04D-03
 IDIUse=3 WtCom= 9.94D-01 WtEn= 5.94D-03
 Coeff-Com: -0.140D-01 0.409D-01 0.183D+00 0.240D+00 0.550D+00
 Coeff-En:   0.000D+00 0.000D+00 0.000D+00 0.000D+00 0.100D+01
 Coeff:     -0.139D-01 0.407D-01 0.182D+00 0.238D+00 0.553D+00
 Gap=     0.248 Goal=   None    Shift=    0.000
 RMSDP=9.80D-05 MaxDP=3.19D-03 DE=-1.92D-03 OVMax= 6.47D-03

 Cycle   6  Pass 1  IDiag  1:
 E= -616.893942219571     Delta-E=       -0.000068433006 Rises=F Damp=F
 DIIS: error= 2.86D-04 at cycle   6 NSaved=   6.
 NSaved= 6 IEnMin= 6 EnMin= -616.893942219571     IErMin= 6 ErrMin= 2.86D-04
 ErrMax= 2.86D-04 EMaxC= 1.00D-01 BMatC= 1.54D-05 BMatP= 7.86D-05
 IDIUse=3 WtCom= 9.97D-01 WtEn= 2.86D-03
 Coeff-Com: -0.356D-02 0.683D-02 0.527D-01 0.774D-01 0.331D+00 0.535D+00
 Coeff-En:   0.000D+00 0.000D+00 0.000D+00 0.000D+00 0.158D+00 0.842D+00
 Coeff:     -0.355D-02 0.681D-02 0.525D-01 0.772D-01 0.331D+00 0.536D+00
 Gap=     0.248 Goal=   None    Shift=    0.000
 RMSDP=4.45D-05 MaxDP=1.50D-03 DE=-6.84D-05 OVMax= 2.17D-03

 Cycle   7  Pass 1  IDiag  1:
 E= -616.893957182892     Delta-E=       -0.000014963321 Rises=F Damp=F
 DIIS: error= 3.44D-05 at cycle   7 NSaved=   7.
 NSaved= 7 IEnMin= 7 EnMin= -616.893957182892     IErMin= 7 ErrMin= 3.44D-05
 ErrMax= 3.44D-05 EMaxC= 1.00D-01 BMatC= 4.55D-07 BMatP= 1.54D-05
 IDIUse=1 WtCom= 1.00D+00 WtEn= 0.00D+00
 Coeff-Com: -0.659D-03 0.310D-03 0.120D-01 0.183D-01 0.107D+00 0.237D+00
 Coeff-Com:  0.627D+00
 Coeff:     -0.659D-03 0.310D-03 0.120D-01 0.183D-01 0.107D+00 0.237D+00
 Coeff:      0.627D+00
 Gap=     0.248 Goal=   None    Shift=    0.000
 RMSDP=9.15D-06 MaxDP=2.94D-04 DE=-1.50D-05 OVMax= 1.78D-04

 Cycle   8  Pass 1  IDiag  1:
 E= -616.893957594053     Delta-E=       -0.000000411161 Rises=F Damp=F
 DIIS: error= 7.57D-06 at cycle   8 NSaved=   8.
 NSaved= 8 IEnMin= 8 EnMin= -616.893957594053     IErMin= 8 ErrMin= 7.57D-06
 ErrMax= 7.57D-06 EMaxC= 1.00D-01 BMatC= 1.89D-08 BMatP= 4.55D-07
 IDIUse=1 WtCom= 1.00D+00 WtEn= 0.00D+00
 Coeff-Com:  0.505D-04-0.359D-03 0.711D-03 0.131D-02 0.176D-01 0.565D-01
 Coeff-Com:  0.232D+00 0.692D+00
 Coeff:      0.505D-04-0.359D-03 0.711D-03 0.131D-02 0.176D-01 0.565D-01
 Coeff:      0.232D+00 0.692D+00
 Gap=     0.248 Goal=   None    Shift=    0.000
 RMSDP=1.94D-06 MaxDP=4.47D-05 DE=-4.11D-07 OVMax= 4.67D-05

 Cycle   9  Pass 1  IDiag  1:
 E= -616.893957611716     Delta-E=       -0.000000017663 Rises=F Damp=F
 DIIS: error= 2.44D-06 at cycle   9 NSaved=   9.
 NSaved= 9 IEnMin= 9 EnMin= -616.893957611716     IErMin= 9 ErrMin= 2.44D-06
 ErrMax= 2.44D-06 EMaxC= 1.00D-01 BMatC= 1.20D-09 BMatP= 1.89D-08
 IDIUse=1 WtCom= 1.00D+00 WtEn= 0.00D+00
 Coeff-Com:  0.420D-04-0.989D-04-0.480D-03-0.657D-03-0.225D-02-0.843D-03
 Coeff-Com:  0.183D-01 0.237D+00 0.749D+00
 Coeff:      0.420D-04-0.989D-04-0.480D-03-0.657D-03-0.225D-02-0.843D-03
 Coeff:      0.183D-01 0.237D+00 0.749D+00
 Gap=     0.248 Goal=   None    Shift=    0.000
 RMSDP=8.43D-07 MaxDP=2.98D-05 DE=-1.77D-08 OVMax= 8.58D-06

 Cycle  10  Pass 1  IDiag  1:
 E= -616.893957612909     Delta-E=       -0.000000001193 Rises=F Damp=F
 DIIS: error= 3.95D-07 at cycle  10 NSaved=  10.
 NSaved=10 IEnMin=10 EnMin= -616.893957612909     IErMin=10 ErrMin= 3.95D-07
 ErrMax= 3.95D-07 EMaxC= 1.00D-01 BMatC= 3.77D-11 BMatP= 1.20D-09
 IDIUse=1 WtCom= 1.00D+00 WtEn= 0.00D+00
 Coeff-Com:  0.109D-04-0.190D-04-0.176D-03-0.244D-03-0.119D-02-0.158D-02
 Coeff-Com:  0.535D-03 0.689D-01 0.265D+00 0.669D+00
 Coeff:      0.109D-04-0.190D-04-0.176D-03-0.244D-03-0.119D-02-0.158D-02
 Coeff:      0.535D-03 0.689D-01 0.265D+00 0.669D+00
 Gap=     0.248 Goal=   None    Shift=    0.000
 RMSDP=1.10D-07 MaxDP=4.01D-06 DE=-1.19D-09 OVMax= 1.84D-06

 Cycle  11  Pass 1  IDiag  1:
 E= -616.893957612940     Delta-E=       -0.000000000031 Rises=F Damp=F
 DIIS: error= 1.34D-07 at cycle  11 NSaved=  11.
 NSaved=11 IEnMin=11 EnMin= -616.893957612940     IErMin=11 ErrMin= 1.34D-07
 ErrMax= 1.34D-07 EMaxC= 1.00D-01 BMatC= 6.35D-12 BMatP= 3.77D-11
 IDIUse=1 WtCom= 1.00D+00 WtEn= 0.00D+00
 Coeff-Com:  0.185D-05-0.180D-05-0.494D-04-0.685D-04-0.381D-03-0.597D-03
 Coeff-Com: -0.111D-02 0.132D-01 0.628D-01 0.327D+00 0.599D+00
 Coeff:      0.185D-05-0.180D-05-0.494D-04-0.685D-04-0.381D-03-0.597D-03
 Coeff:     -0.111D-02 0.132D-01 0.628D-01 0.327D+00 0.599D+00
 Gap=     0.248 Goal=   None    Shift=    0.000
 RMSDP=3.45D-08 MaxDP=1.25D-06 DE=-3.06D-11 OVMax= 5.19D-07

 Cycle  12  Pass 1  IDiag  1:
 E= -616.893957612947     Delta-E=       -0.000000000007 Rises=F Damp=F
 DIIS: error= 1.87D-08 at cycle  12 NSaved=  12.
 NSaved=12 IEnMin=12 EnMin= -616.893957612947     IErMin=12 ErrMin= 1.87D-08
 ErrMax= 1.87D-08 EMaxC= 1.00D-01 BMatC= 1.05D-13 BMatP= 6.35D-12
 IDIUse=1 WtCom= 1.00D+00 WtEn= 0.00D+00
 Coeff-Com: -0.304D-06 0.803D-06-0.478D-06-0.238D-05-0.230D-04-0.176D-04
 Coeff-Com: -0.310D-03-0.151D-02-0.157D-02 0.341D-01 0.126D+00 0.843D+00
 Coeff:     -0.304D-06 0.803D-06-0.478D-06-0.238D-05-0.230D-04-0.176D-04
 Coeff:     -0.310D-03-0.151D-02-0.157D-02 0.341D-01 0.126D+00 0.843D+00
 Gap=     0.248 Goal=   None    Shift=    0.000
 RMSDP=9.06D-09 MaxDP=4.46D-07 DE=-7.39D-12 OVMax= 1.13D-07

 Cycle  13  Pass 1  IDiag  1:
 E= -616.893957612947     Delta-E=        0.000000000001 Rises=F Damp=F
 DIIS: error= 4.05D-09 at cycle  13 NSaved=  13.
 NSaved=13 IEnMin=12 EnMin= -616.893957612947     IErMin=13 ErrMin= 4.05D-09
 ErrMax= 4.05D-09 EMaxC= 1.00D-01 BMatC= 2.81D-15 BMatP= 1.05D-13
 IDIUse=1 WtCom= 1.00D+00 WtEn= 0.00D+00
 Coeff-Com: -0.110D-06 0.239D-06 0.108D-05 0.948D-06 0.857D-06 0.710D-05
 Coeff-Com: -0.676D-04-0.629D-03-0.170D-02 0.558D-03 0.147D-01 0.192D+00
 Coeff-Com:  0.795D+00
 Coeff:     -0.110D-06 0.239D-06 0.108D-05 0.948D-06 0.857D-06 0.710D-05
 Coeff:     -0.676D-04-0.629D-03-0.170D-02 0.558D-03 0.147D-01 0.192D+00
 Coeff:      0.795D+00
 Gap=     0.248 Goal=   None    Shift=    0.000
 RMSDP=2.03D-09 MaxDP=7.77D-08 DE= 5.68D-13 OVMax= 1.45D-08

 Cycle  14  Pass 1  IDiag  1:
 E= -616.893957612947     Delta-E=        0.000000000000 Rises=F Damp=F
 DIIS: error= 1.01D-09 at cycle  14 NSaved=  14.
 NSaved=14 IEnMin=12 EnMin= -616.893957612947     IErMin=14 ErrMin= 1.01D-09
 ErrMax= 1.01D-09 EMaxC= 1.00D-01 BMatC= 2.06D-16 BMatP= 2.81D-15
 IDIUse=1 WtCom= 1.00D+00 WtEn= 0.00D+00
 Coeff-Com: -0.866D-08 0.182D-07 0.303D-06 0.360D-06 0.101D-05 0.271D-05
 Coeff-Com: -0.456D-05-0.942D-04-0.420D-03-0.174D-02-0.269D-02 0.123D-01
 Coeff-Com:  0.246D+00 0.747D+00
 Coeff:     -0.866D-08 0.182D-07 0.303D-06 0.360D-06 0.101D-05 0.271D-05
 Coeff:     -0.456D-05-0.942D-04-0.420D-03-0.174D-02-0.269D-02 0.123D-01
 Coeff:      0.246D+00 0.747D+00
 Gap=     0.248 Goal=   None    Shift=    0.000
 RMSDP=6.75D-10 MaxDP=2.72D-08 DE= 2.27D-13 OVMax= 3.62D-09

 Cycle  15  Pass 1  IDiag  1:
 E= -616.893957612948     Delta-E=       -0.000000000001 Rises=F Damp=F
 DIIS: error= 1.47D-10 at cycle  15 NSaved=  15.
 NSaved=15 IEnMin=15 EnMin= -616.893957612948     IErMin=15 ErrMin= 1.47D-10
 ErrMax= 1.47D-10 EMaxC= 1.00D-01 BMatC= 4.12D-18 BMatP= 2.06D-16
 IDIUse=1 WtCom= 1.00D+00 WtEn= 0.00D+00
 Coeff-Com:  0.624D-09-0.129D-08 0.394D-07 0.710D-07 0.195D-06 0.381D-06
 Coeff-Com:  0.877D-06-0.197D-06-0.361D-04-0.350D-03-0.107D-02-0.335D-02
 Coeff-Com:  0.230D-01 0.146D+00 0.835D+00
 Coeff:      0.624D-09-0.129D-08 0.394D-07 0.710D-07 0.195D-06 0.381D-06
 Coeff:      0.877D-06-0.197D-06-0.361D-04-0.350D-03-0.107D-02-0.335D-02
 Coeff:      0.230D-01 0.146D+00 0.835D+00
 Gap=     0.248 Goal=   None    Shift=    0.000
 RMSDP=9.89D-11 MaxDP=4.27D-09 DE=-1.14D-12 OVMax= 8.26D-10

 Cycle  16  Pass 1  IDiag  1:
 E= -616.893957612948     Delta-E=       -0.000000000001 Rises=F Damp=F
 DIIS: error= 3.11D-11 at cycle  16 NSaved=  16.
 NSaved=16 IEnMin=16 EnMin= -616.893957612948     IErMin=16 ErrMin= 3.11D-11
 ErrMax= 3.11D-11 EMaxC= 1.00D-01 BMatC= 1.64D-19 BMatP= 4.12D-18
 IDIUse=1 WtCom= 1.00D+00 WtEn= 0.00D+00
 Large coefficients: NSaved= 16 BigCof=    0.00 CofMax=   10.00 Det=-1.90D-18
 Inversion failed.  Reducing to 15 matrices.
 Coeff-Com: -0.181D-09 0.285D-08 0.100D-07 0.321D-07 0.717D-07 0.348D-06
 Coeff-Com:  0.160D-05 0.239D-05-0.177D-04-0.132D-03-0.845D-03-0.326D-02
 Coeff-Com:  0.263D-02 0.168D+00 0.833D+00
 Coeff:     -0.181D-09 0.285D-08 0.100D-07 0.321D-07 0.717D-07 0.348D-06
 Coeff:      0.160D-05 0.239D-05-0.177D-04-0.132D-03-0.845D-03-0.326D-02
 Coeff:      0.263D-02 0.168D+00 0.833D+00
 Gap=     0.248 Goal=   None    Shift=    0.000
 RMSDP=2.93D-11 MaxDP=1.76D-09 DE=-6.82D-13 OVMax= 1.53D-10

 Cycle  17  Pass 1  IDiag  1:
 E= -616.893957612947     Delta-E=        0.000000000002 Rises=F Damp=F
 DIIS: error= 7.47D-12 at cycle  17 NSaved=  16.
 NSaved=16 IEnMin=15 EnMin= -616.893957612948     IErMin=16 ErrMin= 7.47D-12
 ErrMax= 7.47D-12 EMaxC= 1.00D-01 BMatC= 6.04D-21 BMatP= 1.64D-19
 IDIUse=1 WtCom= 1.00D+00 WtEn= 0.00D+00
 Large coefficients: NSaved= 16 BigCof=    0.00 CofMax=   10.00 Det=-7.62D-20
 Inversion failed.  Reducing to 15 matrices.
 Coeff-Com: -0.113D-08-0.809D-09-0.211D-08 0.421D-09 0.437D-07 0.410D-06
 Coeff-Com:  0.223D-05 0.960D-05 0.730D-05-0.870D-04-0.169D-02-0.512D-02
 Coeff-Com:  0.132D-01 0.209D+00 0.785D+00
 Coeff:     -0.113D-08-0.809D-09-0.211D-08 0.421D-09 0.437D-07 0.410D-06
 Coeff:      0.223D-05 0.960D-05 0.730D-05-0.870D-04-0.169D-02-0.512D-02
 Coeff:      0.132D-01 0.209D+00 0.785D+00
 Gap=     0.248 Goal=   None    Shift=    0.000
 RMSDP=1.24D-11 MaxDP=3.71D-10 DE= 1.82D-12 OVMax= 2.88D-11

 Cycle  18  Pass 1  IDiag  1:
 E= -616.893957612947     Delta-E=        0.000000000000 Rises=F Damp=F
 DIIS: error= 2.59D-12 at cycle  18 NSaved=  16.
 NSaved=16 IEnMin=14 EnMin= -616.893957612948     IErMin=16 ErrMin= 2.59D-12
 ErrMax= 2.59D-12 EMaxC= 1.00D-01 BMatC= 3.16D-22 BMatP= 6.04D-21
 IDIUse=1 WtCom= 1.00D+00 WtEn= 0.00D+00
 Large coefficients: NSaved= 16 BigCof=    0.00 CofMax=   10.00 Det=-3.20D-21
 Inversion failed.  Reducing to 15 matrices.
 Coeff-Com:  0.709D-13 0.664D-09 0.889D-09 0.711D-08 0.247D-07 0.162D-06
 Coeff-Com:  0.517D-06 0.404D-06-0.935D-05-0.113D-03-0.618D-03-0.649D-03
 Coeff-Com:  0.154D-01 0.152D+00 0.834D+00
 Coeff:      0.709D-13 0.664D-09 0.889D-09 0.711D-08 0.247D-07 0.162D-06
 Coeff:      0.517D-06 0.404D-06-0.935D-05-0.113D-03-0.618D-03-0.649D-03
 Coeff:      0.154D-01 0.152D+00 0.834D+00
 Gap=     0.248 Goal=   None    Shift=    0.000
 RMSDP=1.30D-11 MaxDP=5.82D-10 DE=-2.27D-13 OVMax= 6.46D-12

 Cycle  19  Pass 1  IDiag  1:
 E= -616.893957612949     Delta-E=       -0.000000000002 Rises=F Damp=F
 DIIS: error= 2.29D-12 at cycle  19 NSaved=  16.
 NSaved=16 IEnMin=16 EnMin= -616.893957612949     IErMin=16 ErrMin= 2.29D-12
 ErrMax= 2.29D-12 EMaxC= 1.00D-01 BMatC= 1.53D-22 BMatP= 3.16D-22
 IDIUse=1 WtCom= 1.00D+00 WtEn= 0.00D+00
 Large coefficients: NSaved= 16 BigCof=    0.00 CofMax=   10.00 Det=-5.21D-22
 Inversion failed.  Reducing to 15 matrices.
 Coeff-Com:  0.298D-09 0.552D-10 0.148D-08 0.465D-08 0.634D-07 0.397D-06
 Coeff-Com:  0.859D-06-0.190D-05-0.485D-04-0.310D-03-0.847D-03 0.297D-02
 Coeff-Com:  0.576D-01 0.389D+00 0.552D+00
 Coeff:      0.298D-09 0.552D-10 0.148D-08 0.465D-08 0.634D-07 0.397D-06
 Coeff:      0.859D-06-0.190D-05-0.485D-04-0.310D-03-0.847D-03 0.297D-02
 Coeff:      0.576D-01 0.389D+00 0.552D+00
 Gap=     0.248 Goal=   None    Shift=    0.000
 RMSDP=7.77D-12 MaxDP=3.82D-10 DE=-2.05D-12 OVMax= 3.15D-12

 SCF Done:  E(RB3LYP) =  -616.893957613     A.U. after   19 cycles
             Convg  =    0.7773D-11             -V/T =  2.0031
 KE= 6.150135057724D+02 PE=-1.880102706501D+03 EE= 4.365101139700D+02
 Leave Link  502 at Wed Jul 10 16:54:49 2013, MaxMem=  131072000 cpu:     269.2
 (Enter /cerebro/home/software/apps/g09/l801.exe)
 Range of M.O.s used for correlation:     1   167
 NBasis=   167 NAE=    24 NBE=    24 NFC=     0 NFV=     0
 NROrb=    167 NOA=    24 NOB=    24 NVA=   143 NVB=   143

 **** Warning!!: The largest alpha MO coefficient is  0.66384742D+02

 Leave Link  801 at Wed Jul 10 16:54:49 2013, MaxMem=  131072000 cpu:       0.1
 (Enter /cerebro/home/software/apps/g09/l1002.exe)
 Minotr:  Closed shell wavefunction.
          Direct CPHF calculation.
          Differentiating once with respect to magnetic field using GIAOs.
          Electric field/nuclear overlap derivatives assumed to be zero.
          Requested convergence is 1.0D-11 RMS, and 1.0D-10 maximum.
          NewPWx=F KeepS1=T KeepF1=T KeepIn=T MapXYZ=F SortEE=F KeepMc=T.
          MDV=     131071900 using IRadAn=       4.
 Generate precomputed XC quadrature information.
          Solving linear equations separately, MaxMat=       0.
          Doing perturbations at frequencies    0.071980    0.077357    0.104503    0.128347
 FoFCou: FMM=F IPFlag=           0 FMFlag=           0 FMFlg1=           0
         NFxFlg=           0 DoJE=F BraDBF=F KetDBF=T FulRan=T
         Omega=  0.000000  0.000000  1.000000  0.000000  0.000000 ICntrl=    6100 IOpCl=  0
         NMat0=    1 NMatS0=    1 NMatT0=    0 NMatD0=    1 NMtDS0=    0 NMtDT0=    0
         I1Cent=           7 NGrid=          12.
 Symmetry not used in FoFCou.
 Integrals replicated using symmetry in FoFDir.
 MinBra= 0 MaxBra= 2 Meth= 1.
 IRaf=       0 NMat=  24 IRICut=      30 DoRegI=T DoRafI=T ISym2E= 2 JSym2E=2.
 CalDSu exits because no D1Ps are significant.
          There are    12 degrees of freedom in the 1st order CPHF.  IDoFFX=0.
 LinEq1:  Iter=  0 NonCon=    12 RMS=5.70D-02 Max=1.50D+00
 AX will form    12 AO Fock derivatives at one time.
 LinEq1:  Iter=  1 NonCon=    12 RMS=1.62D-02 Max=7.71D-01
 LinEq1:  Iter=  2 NonCon=    12 RMS=1.25D-02 Max=6.84D-01
 LinEq1:  Iter=  3 NonCon=    12 RMS=6.48D-03 Max=1.75D-01
 LinEq1:  Iter=  4 NonCon=    12 RMS=4.31D-03 Max=7.88D-02
 LinEq1:  Iter=  5 NonCon=    12 RMS=1.70D-03 Max=5.18D-02
 LinEq1:  Iter=  6 NonCon=    12 RMS=8.77D-04 Max=1.58D-02
 LinEq1:  Iter=  7 NonCon=    12 RMS=3.12D-04 Max=6.19D-03
 LinEq1:  Iter=  8 NonCon=    12 RMS=1.33D-04 Max=2.51D-03
 LinEq1:  Iter=  9 NonCon=    12 RMS=5.23D-05 Max=7.96D-04
 LinEq1:  Iter= 10 NonCon=    12 RMS=2.01D-05 Max=2.90D-04
 LinEq1:  Iter= 11 NonCon=    12 RMS=7.45D-06 Max=1.51D-04
 LinEq1:  Iter= 12 NonCon=    12 RMS=3.49D-06 Max=4.58D-05
 LinEq1:  Iter= 13 NonCon=    12 RMS=1.32D-06 Max=2.27D-05
 LinEq1:  Iter= 14 NonCon=    12 RMS=4.00D-07 Max=6.62D-06
 LinEq1:  Iter= 15 NonCon=    12 RMS=1.04D-07 Max=1.56D-06
 LinEq1:  Iter= 16 NonCon=    12 RMS=3.35D-08 Max=6.52D-07
 LinEq1:  Iter= 17 NonCon=    12 RMS=8.38D-09 Max=1.87D-07
 LinEq1:  Iter= 18 NonCon=    12 RMS=2.13D-09 Max=5.45D-08
 LinEq1:  Iter= 19 NonCon=    12 RMS=6.18D-10 Max=1.65D-08
 LinEq1:  Iter= 20 NonCon=    12 RMS=1.78D-10 Max=3.20D-09
 LinEq1:  Iter= 21 NonCon=     7 RMS=6.28D-11 Max=1.63D-09
 LinEq1:  Iter= 22 NonCon=     3 RMS=1.31D-11 Max=2.23D-10
 LinEq1:  Iter= 23 NonCon=     0 RMS=5.32D-12 Max=6.39D-11
 Linear equations converged to 1.000D-11 1.000D-10 after    23 iterations.
 FullF1:  Do perturbations    1 to    12.
 Dipole-magnetic dipole polarizability for W=    0.071980:
                 1             2             3 
      1   0.436286D+01 -0.114298D+01 -0.729814D+01
      2  -0.801415D+01 -0.486434D+01 -0.192967D+02
      3   0.250083D+02  0.965780D+01  0.183019D+01
 w=    0.071980 a.u., Optical Rotation Beta=     -0.4429 au.
 Molar Mass =     90.5523 grams/mole, [Alpha] ( 6330.0 A) =     -163.85 deg.
 Dipole-magnetic dipole polarizability for W=    0.077357:
                 1             2             3 
      1   0.443392D+01 -0.113086D+01 -0.728869D+01
      2  -0.814823D+01 -0.490962D+01 -0.193681D+02
      3   0.252188D+02  0.974301D+01  0.185323D+01
 w=    0.077357 a.u., Optical Rotation Beta=     -0.4592 au.
 Molar Mass =     90.5523 grams/mole, [Alpha] ( 5890.0 A) =     -196.20 deg.
 Dipole-magnetic dipole polarizability for W=    0.104503:
                 1             2             3 
      1   0.492849D+01 -0.103820D+01 -0.721507D+01
      2  -0.905964D+01 -0.520611D+01 -0.198280D+02
      3   0.266769D+02  0.103320D+02  0.201398D+01
 w=    0.104503 a.u., Optical Rotation Beta=     -0.5788 au.
 Molar Mass =     90.5523 grams/mole, [Alpha] ( 4360.0 A) =     -451.33 deg.
 Dipole-magnetic dipole polarizability for W=    0.128347:
                 1             2             3 
      1   0.564039D+01 -0.884208D+00 -0.709247D+01
      2  -0.103024D+02 -0.558105D+01 -0.203959D+02
      3   0.287654D+02  0.111696D+02  0.224656D+01
 w=    0.128347 a.u., Optical Rotation Beta=     -0.7686 au.
 Molar Mass =     90.5523 grams/mole, [Alpha] ( 3550.0 A) =     -904.09 deg.
 End of Minotr Frequency-dependent properties on file   721 Mask=       2 NFrqRd=     4 NDeriv=     1 LenFil=      42:
 Frequencies=    0.071980    0.077357    0.104503    0.128347
 Property number 2 -- FD Optical Rotation Tensor frequency  1    0.071980:
                 1             2             3 
      1   0.436286D+01 -0.114298D+01 -0.729814D+01
      2  -0.801415D+01 -0.486434D+01 -0.192967D+02
      3   0.250083D+02  0.965780D+01  0.183019D+01
 Property number 2 -- FD Optical Rotation Tensor frequency  2    0.077357:
                 1             2             3 
      1   0.443392D+01 -0.113086D+01 -0.728869D+01
      2  -0.814823D+01 -0.490962D+01 -0.193681D+02
      3   0.252188D+02  0.974301D+01  0.185323D+01
 Property number 2 -- FD Optical Rotation Tensor frequency  3    0.104503:
                 1             2             3 
      1   0.492849D+01 -0.103820D+01 -0.721507D+01
      2  -0.905964D+01 -0.520611D+01 -0.198280D+02
      3   0.266769D+02  0.103320D+02  0.201398D+01
 Property number 2 -- FD Optical Rotation Tensor frequency  4    0.128347:
                 1             2             3 
      1   0.564039D+01 -0.884208D+00 -0.709247D+01
      2  -0.103024D+02 -0.558105D+01 -0.203959D+02
      3   0.287654D+02  0.111696D+02  0.224656D+01
 End of Minotr Frequency-dependent properties file   722 does not exist.
 Leave Link 1002 at Wed Jul 10 17:28:31 2013, MaxMem=  131072000 cpu:    2011.3
 (Enter /cerebro/home/software/apps/g09/l601.exe)
 Copying SCF densities to generalized density rwf, IOpCl= 0 IROHF=0.

 **********************************************************************

            Population analysis using the SCF density.

 **********************************************************************

 Orbital symmetries:
       Occupied  (A) (A) (A) (A) (A) (A) (A) (A) (A) (A) (A) (A)
                 (A) (A) (A) (A) (A) (A) (A) (A) (A) (A) (A) (A)
       Virtual   (A) (A) (A) (A) (A) (A) (A) (A) (A) (A) (A) (A)
                 (A) (A) (A) (A) (A) (A) (A) (A) (A) (A) (A) (A)
                 (A) (A) (A) (A) (A) (A) (A) (A) (A) (A) (A) (A)
                 (A) (A) (A) (A) (A) (A) (A) (A) (A) (A) (A) (A)
                 (A) (A) (A) (A) (A) (A) (A) (A) (A) (A) (A) (A)
                 (A) (A) (A) (A) (A) (A) (A) (A) (A) (A) (A) (A)
                 (A) (A) (A) (A) (A) (A) (A) (A) (A) (A) (A) (A)
                 (A) (A) (A) (A) (A) (A) (A) (A) (A) (A) (A) (A)
                 (A) (A) (A) (A) (A) (A) (A) (A) (A) (A) (A) (A)
                 (A) (A) (A) (A) (A) (A) (A) (A) (A) (A) (A) (A)
                 (A) (A) (A) (A) (A) (A) (A) (A) (A) (A) (A) (A)
                 (A) (A) (A) (A) (A) (A) (A) (A) (A) (A) (A)
 The electronic state is 1-A.
 Alpha  occ. eigenvalues -- -101.53385 -10.24789 -10.19402 -10.18417 -10.18180
 Alpha  occ. eigenvalues --   -9.44827  -7.21260  -7.20319  -7.20304  -0.86752
 Alpha  occ. eigenvalues --   -0.78725  -0.74235  -0.64077  -0.57793  -0.48538
 Alpha  occ. eigenvalues --   -0.47417  -0.45403  -0.41556  -0.39640  -0.37690
 Alpha  occ. eigenvalues --   -0.36570  -0.30610  -0.29841  -0.28077
 Alpha virt. eigenvalues --   -0.03314  -0.00751   0.00615   0.00762   0.02184
 Alpha virt. eigenvalues --    0.02825   0.03818   0.04070   0.06361   0.06457
 Alpha virt. eigenvalues --    0.07273   0.08344   0.08787   0.09853   0.11113
 Alpha virt. eigenvalues --    0.11615   0.11836   0.12191   0.12952   0.12982
 Alpha virt. eigenvalues --    0.13720   0.14178   0.15068   0.15610   0.16012
 Alpha virt. eigenvalues --    0.16448   0.17043   0.18607   0.19114   0.21441
 Alpha virt. eigenvalues --    0.21978   0.22804   0.24549   0.26143   0.27046
 Alpha virt. eigenvalues --    0.28912   0.34177   0.35831   0.39102   0.42457
 Alpha virt. eigenvalues --    0.43486   0.44694   0.45937   0.47819   0.48757
 Alpha virt. eigenvalues --    0.49569   0.52343   0.53008   0.56688   0.58847
 Alpha virt. eigenvalues --    0.60027   0.62045   0.63438   0.64817   0.65964
 Alpha virt. eigenvalues --    0.66475   0.69243   0.70837   0.73520   0.73812
 Alpha virt. eigenvalues --    0.78619   0.81340   0.83059   0.86184   0.89362
 Alpha virt. eigenvalues --    0.90085   0.94569   0.95764   1.00684   1.02717
 Alpha virt. eigenvalues --    1.06509   1.07495   1.12979   1.17751   1.19903
 Alpha virt. eigenvalues --    1.29545   1.39585   1.43082   1.43820   1.47550
 Alpha virt. eigenvalues --    1.50048   1.54265   1.56664   1.58265   1.61024
 Alpha virt. eigenvalues --    1.62295   1.66732   1.69413   1.69877   1.72837
 Alpha virt. eigenvalues --    1.77118   1.78975   1.87215   1.87738   1.94276
 Alpha virt. eigenvalues --    1.97989   2.02031   2.07454   2.11277   2.18055
 Alpha virt. eigenvalues --    2.19327   2.20942   2.24998   2.29402   2.30731
 Alpha virt. eigenvalues --    2.35375   2.36714   2.43806   2.46353   2.51243
 Alpha virt. eigenvalues --    2.54101   2.55346   2.57259   2.58749   2.60673
 Alpha virt. eigenvalues --    2.64144   2.73181   2.73899   2.75074   2.78105
 Alpha virt. eigenvalues --    2.85342   2.86613   2.93175   3.07295   3.09116
 Alpha virt. eigenvalues --    3.18345   3.39734   3.50873   3.69642   3.71745
 Alpha virt. eigenvalues --    3.84755   3.95354   4.13929   4.29420   9.75604
 Alpha virt. eigenvalues --   23.72260  23.79497  23.94289  24.25725  25.93055
 Alpha virt. eigenvalues --   25.97556  26.44609 215.74576
          Condensed to atoms (all electrons):
              1          2          3          4          5          6
     1  C    5.397550   0.125774   0.009233   0.096224  -0.002918   0.379030
     2  C    0.125774   5.412836   0.022884  -0.107106  -0.019083  -0.050498
     3  C    0.009233   0.022884   5.317726   0.424202  -0.047478   0.024912
     4  C    0.096224  -0.107106   0.424202   5.387376   0.388488  -0.012207
     5  H   -0.002918  -0.019083  -0.047478   0.388488   0.566386   0.000822
     6  H    0.379030  -0.050498   0.024912  -0.012207   0.000822   0.548284
     7  H    0.002190   0.017540  -0.008581   0.387146  -0.039683   0.000195
     8  H   -0.016801  -0.009931   0.329293  -0.033897   0.015556  -0.001695
     9  H   -0.041970   0.478413  -0.143985   0.013547   0.011310  -0.005826
    10  H    0.396830  -0.008410  -0.047337  -0.000820   0.001928  -0.033921
    11  H    0.372199  -0.057243   0.022748   0.005617  -0.001182  -0.021462
    12  Cl  -0.044227   0.025137   0.004293   0.066592  -0.000344   0.013465
              7          8          9         10         11         12
     1  C    0.002190  -0.016801  -0.041970   0.396830   0.372199  -0.044227
     2  C    0.017540  -0.009931   0.478413  -0.008410  -0.057243   0.025137
     3  C   -0.008581   0.329293  -0.143985  -0.047337   0.022748   0.004293
     4  C    0.387146  -0.033897   0.013547  -0.000820   0.005617   0.066592
     5  H   -0.039683   0.015556   0.011310   0.001928  -0.001182  -0.000344
     6  H    0.000195  -0.001695  -0.005826  -0.033921  -0.021462   0.013465
     7  H    0.535346  -0.020169  -0.002970  -0.000799   0.000408  -0.003942
     8  H   -0.020169   0.546161   0.005993   0.003402  -0.002502   0.019071
     9  H   -0.002970   0.005993   0.512231   0.007733  -0.011379  -0.045033
    10  H   -0.000799   0.003402   0.007733   0.542034  -0.026423   0.006959
    11  H    0.000408  -0.002502  -0.011379  -0.026423   0.571254   0.018501
    12  Cl  -0.003942   0.019071  -0.045033   0.006959   0.018501  17.007192
 Mulliken atomic charges:
              1
     1  C   -0.673113
     2  C    0.169687
     3  C    0.092090
     4  C   -0.615161
     5  H    0.126198
     6  H    0.158902
     7  H    0.133319
     8  H    0.165519
     9  H    0.221935
    10  H    0.158825
    11  H    0.129463
    12  Cl  -0.067663
 Sum of Mulliken atomic charges =   0.00000
 Mulliken charges with hydrogens summed into heavy atoms:
              1
     1  C   -0.225924
     2  C    0.391622
     3  C    0.257608
     4  C   -0.355644
    12  Cl  -0.067663
 Sum of Mulliken charges with hydrogens summed into heavy atoms =   0.00000
 Electronic spatial extent (au):  <R**2>=            628.8010
 Charge=              0.0000 electrons
 Dipole moment (field-independent basis, Debye):
    X=             -1.6806    Y=              1.5654    Z=             -0.3125  Tot=              2.3178
 Quadrupole moment (field-independent basis, Debye-Ang):
   XX=            -39.1524   YY=            -40.1414   ZZ=            -37.2913
   XY=              2.4718   XZ=              0.2348   YZ=             -0.1200
 Traceless Quadrupole moment (field-independent basis, Debye-Ang):
   XX=             -0.2907   YY=             -1.2797   ZZ=              1.5704
   XY=              2.4718   XZ=              0.2348   YZ=             -0.1200
 Octapole moment (field-independent basis, Debye-Ang**2):
  XXX=             -1.8220  YYY=              1.1650  ZZZ=             -0.5037  XYY=              4.5728
  XXY=             -4.2808  XXZ=              0.5245  XZZ=             -0.9748  YZZ=             -0.6456
  YYZ=             -0.0508  XYZ=              0.0626
 Hexadecapole moment (field-independent basis, Debye-Ang**3):
 XXXX=           -488.1764 YYYY=           -278.7185 ZZZZ=            -81.0077 XXXY=             10.4768
 XXXZ=             -2.1854 YYYX=             -7.9805 YYYZ=             -1.4843 ZZZX=              1.1729
 ZZZY=              1.1741 XXYY=           -128.8136 XXZZ=            -96.1356 YYZZ=            -61.9802
 XXYZ=             -2.6256 YYXZ=              1.7328 ZZXY=              1.5294
 N-N= 2.116851291456D+02 E-N=-1.880102706501D+03  KE= 6.150135057724D+02
 No NMR shielding tensors so no spin-rotation constants.
 Leave Link  601 at Wed Jul 10 17:28:32 2013, MaxMem=  131072000 cpu:       0.3
 (Enter /cerebro/home/software/apps/g09/l9999.exe)
 AllDun Frequency-dependent properties on file 20721 Mask=       2 NFrqRd=     4 NDeriv=     1 LenFil=      42:
 Frequencies=    0.071980    0.077357    0.104503    0.128347
 Property number 2 -- FD Optical Rotation Tensor frequency  1    0.071980:
                 1             2             3 
      1   0.435375D+01 -0.112750D+01 -0.725421D+01
      2  -0.800185D+01 -0.486900D+01 -0.193359D+02
      3   0.249791D+02  0.969932D+01  0.184396D+01
 Property number 2 -- FD Optical Rotation Tensor frequency  2    0.077357:
                 1             2             3 
      1   0.442472D+01 -0.111528D+01 -0.724452D+01
      2  -0.813590D+01 -0.491457D+01 -0.194075D+02
      3   0.251892D+02  0.978490D+01  0.186738D+01
 Property number 2 -- FD Optical Rotation Tensor frequency  3    0.104503:
                 1             2             3 
      1   0.491856D+01 -0.102199D+01 -0.716922D+01
      2  -0.904713D+01 -0.521302D+01 -0.198694D+02
      3   0.266452D+02  0.103765D+02  0.203082D+01
 Property number 2 -- FD Optical Rotation Tensor frequency  4    0.128347:
                 1             2             3 
      1   0.562921D+01 -0.867219D+00 -0.704438D+01
      2  -0.102899D+02 -0.559073D+01 -0.204401D+02
      3   0.287307D+02  0.112178D+02  0.226742D+01
 1\1\GINC-COMPUTE-0-1\SP\RB3LYP\6-311++G(d,p)\C4H7Cl1\CRAWDAD\10-Jul-20
 13\0\\#P B3LYP/6-311++G** scf(conver=11) int=ultrafine polar=optrot cp
 hf(rdfreq,conver=11)\\(R)-3-chloro-1-butene tau=120\\0,1\C,0,0.4635768
 1,1.7548555,0.03786197\C,0,0.00350282,0.35091246,-0.32479538\C,0,-1.20
 490094,-0.09663044,0.426471\C,0,-2.3317896,-0.49766243,-0.15516597\H,0
 ,-2.43268956,-0.55374443,-1.23480675\H,0,1.4078779,2.02121889,-0.44805
 811\H,0,-3.2017623,-0.7895398,0.42160303\H,0,-1.13269875,-0.06336585,1
 .51069534\H,0,-0.15178337,0.25432656,-1.39891299\H,0,0.74325263,1.8403
 5233,1.09413717\H,0,-0.34245684,2.44407783,-0.22651067\Cl,0,1.38606722
 ,-0.83734699,0.02285815\\Version=EM64L-G09RevA.02\State=1-A\HF=-616.89
 39576\RMSD=7.773e-12\Dipole=-0.6623076,0.6146286,-0.1230757\Quadrupole
 =-0.2246428,-0.9431961,1.1678389,1.8391311,0.1754011,-0.0891345\PG=C01
  [X(C4H7Cl1)]\\@


 There ain't no surer way to find out whether you
 like people or hate them than to travel with them.
                                     -- Mark Twain
 Job cpu time:  0 days  0 hours 38 minutes 10.2 seconds.
 File lengths (MBytes):  RWF=    119 Int=      0 D2E=      0 Chk=      2 Scr=      1
 Normal termination of Gaussian 09 at Wed Jul 10 17:28:32 2013.
