(R)-3-chloro-1-butene tau=120                                           
SP        RB3LYP                                                      6-311++G(d,p)       
Number of atoms                            I               12
Info1-9                                    I   N=           9
          26          26           0           0           0         110
           1          18        -502
Full Title                                 C   N=           3
(R)-3-chloro-1-butene tau=120       
Route                                      C   N=           7
#P B3LYP/6-311++G** scf(conver=11) int=ultrafine polar=optro
t cphf(rdfreq,conver=11)
Charge                                     I                0
Multiplicity                               I                1
Number of electrons                        I               48
Number of alpha electrons                  I               24
Number of beta electrons                   I               24
Number of basis functions                  I              167
Number of independent functions            I              167
Number of point charges in /Mol/           I                0
Number of translation vectors              I                0
Atomic numbers                             I   N=          12
           6           6           6           6           1           1
           1           1           1           1           1          17
Nuclear charges                            R   N=          12
  6.00000000E+00  6.00000000E+00  6.00000000E+00  6.00000000E+00  1.00000000E+00
  1.00000000E+00  1.00000000E+00  1.00000000E+00  1.00000000E+00  1.00000000E+00
  1.00000000E+00  1.70000000E+01
Current cartesian coordinates              R   N=          36
  8.81897087E-01  3.31491153E+00  6.44411823E-02  5.66162722E-03  6.62659067E-01
 -6.15327504E-01 -2.27739245E+00 -1.75940260E-01  8.09384429E-01 -4.41031496E+00
 -9.30901562E-01 -2.85106844E-01 -4.60453518E+00 -1.03964728E+00 -2.32485206E+00
  2.66595028E+00  3.81298866E+00 -8.57495435E-01 -6.05373279E+00 -1.47722824E+00
  8.08356107E-01 -2.13748167E+00 -1.10182708E-01  2.85794665E+00 -2.91481040E-01
  4.77610041E-01 -2.64434912E+00  1.41400128E+00  3.47844633E+00  2.05939666E+00
 -6.39290064E-01  4.61985228E+00 -4.34709156E-01  2.61455655E+00 -1.58742422E+00
  4.09034574E-02
Number of symbols in /Mol/                 I                0
Force Field                                I                0
Atom Types                                 C   N=          12
                                                            
                                                            
                        
Int Atom Types                             I   N=          12
           0           0           0           0           0           0
           0           0           0           0           0           0
MM charges                                 R   N=          12
  0.00000000E+00  0.00000000E+00  0.00000000E+00  0.00000000E+00  0.00000000E+00
  0.00000000E+00  0.00000000E+00  0.00000000E+00  0.00000000E+00  0.00000000E+00
  0.00000000E+00  0.00000000E+00
Integer atomic weights                     I   N=          12
          12          12          12          12           1           1
           1           1           1           1           1          35
Real atomic weights                        R   N=          12
  1.20000000E+01  1.20000000E+01  1.20000000E+01  1.20000000E+01  1.00782504E+00
  1.00782504E+00  1.00782504E+00  1.00782504E+00  1.00782504E+00  1.00782504E+00
  1.00782504E+00  3.49688527E+01
Atom fragment info                         I   N=          12
           0           0           0           0           0           0
           0           0           0           0           0           0
Atom residue num                           I   N=          12
           0           0           0           0           0           0
           0           0           0           0           0           0
Nuclear spins                              I   N=          12
           0           0           0           0           1           1
           1           1           1           1           1           3
Nuclear ZEff                               R   N=          12
 -3.60000000E+00 -3.60000000E+00 -3.60000000E+00 -3.60000000E+00 -1.00000000E+00
 -1.00000000E+00 -1.00000000E+00 -1.00000000E+00 -1.00000000E+00 -1.00000000E+00
 -1.00000000E+00 -1.42400000E+01
Nuclear ZNuc                               R   N=          12
  6.00000000E+00  6.00000000E+00  6.00000000E+00  6.00000000E+00  1.00000000E+00
  1.00000000E+00  1.00000000E+00  1.00000000E+00  1.00000000E+00  1.00000000E+00
  1.00000000E+00  1.70000000E+01
Nuclear QMom                               R   N=          12
  0.00000000E+00  0.00000000E+00  0.00000000E+00  0.00000000E+00  0.00000000E+00
  0.00000000E+00  0.00000000E+00  0.00000000E+00  0.00000000E+00  0.00000000E+00
  0.00000000E+00 -8.16500000E+00
Nuclear GFac                               R   N=          12
  0.00000000E+00  0.00000000E+00  0.00000000E+00  0.00000000E+00  2.79284600E+00
  2.79284600E+00  2.79284600E+00  2.79284600E+00  2.79284600E+00  2.79284600E+00
  2.79284600E+00  8.21874000E-01
MicOpt                                     I   N=          12
          -1          -1          -1          -1          -1          -1
          -1          -1          -1          -1          -1          -1
Number of residues                         I                0
Number of secondary structures             I                0
SymInf integers                            I   N=          26
           1           1           1           1           1           0
           0           0           0           0           0           0
           0           0           0           0           0           0
           0           0           0           0           0           0
           0           0
RotTr to input orientation                 R   N=          12
  9.99996361E-01  2.15212402E-03  1.62704478E-03 -2.15465810E-03  9.99996466E-01
  1.55733112E-03 -1.62368746E-03 -1.56083118E-03  9.99997464E-01  1.38646805E-03
 -5.00886084E-04  5.10434319E-04
Number of contracted shells                I               72
Number of primitive shells                 I              126
Pure/Cartesian d shells                    I                0
Pure/Cartesian f shells                    I                0
Highest angular momentum                   I                2
Largest degree of contraction              I                6
Shell types                                I   N=          72
           0          -1          -1          -1          -1          -2
           0          -1          -1          -1          -1          -2
           0          -1          -1          -1          -1          -2
           0          -1          -1          -1          -1          -2
           0           0           0           0           1           0
           0           0           0           1           0           0
           0           0           1           0           0           0
           0           1           0           0           0           0
           1           0           0           0           0           1
           0           0           0           0           1           0
           0           0           0           0           0          -1
           1           1           1           1           1          -2
Number of primitives per shell             I   N=          72
           6           3           1           1           1           1
           6           3           1           1           1           1
           6           3           1           1           1           1
           6           3           1           1           1           1
           3           1           1           1           1           3
           1           1           1           1           3           1
           1           1           1           3           1           1
           1           1           3           1           1           1
           1           3           1           1           1           1
           3           1           1           1           1           6
           3           1           1           1           1           1
           5           2           1           1           1           1
Shell to atom map                          I   N=          72
           1           1           1           1           1           1
           2           2           2           2           2           2
           3           3           3           3           3           3
           4           4           4           4           4           4
           5           5           5           5           5           6
           6           6           6           6           7           7
           7           7           7           8           8           8
           8           8           9           9           9           9
           9          10          10          10          10          10
          11          11          11          11          11          12
          12          12          12          12          12          12
          12          12          12          12          12          12
Primitive exponents                        R   N=         126
  4.56324000E+03  6.82024000E+02  1.54973000E+02  4.44553000E+01  1.30290000E+01
  1.82773000E+00  2.09642000E+01  4.80331000E+00  1.45933000E+00  4.83456000E-01
  1.45585000E-01  4.38000000E-02  6.26000000E-01  4.56324000E+03  6.82024000E+02
  1.54973000E+02  4.44553000E+01  1.30290000E+01  1.82773000E+00  2.09642000E+01
  4.80331000E+00  1.45933000E+00  4.83456000E-01  1.45585000E-01  4.38000000E-02
  6.26000000E-01  4.56324000E+03  6.82024000E+02  1.54973000E+02  4.44553000E+01
  1.30290000E+01  1.82773000E+00  2.09642000E+01  4.80331000E+00  1.45933000E+00
  4.83456000E-01  1.45585000E-01  4.38000000E-02  6.26000000E-01  4.56324000E+03
  6.82024000E+02  1.54973000E+02  4.44553000E+01  1.30290000E+01  1.82773000E+00
  2.09642000E+01  4.80331000E+00  1.45933000E+00  4.83456000E-01  1.45585000E-01
  4.38000000E-02  6.26000000E-01  3.38650000E+01  5.09479000E+00  1.15879000E+00
  3.25840000E-01  1.02741000E-01  3.60000000E-02  7.50000000E-01  3.38650000E+01
  5.09479000E+00  1.15879000E+00  3.25840000E-01  1.02741000E-01  3.60000000E-02
  7.50000000E-01  3.38650000E+01  5.09479000E+00  1.15879000E+00  3.25840000E-01
  1.02741000E-01  3.60000000E-02  7.50000000E-01  3.38650000E+01  5.09479000E+00
  1.15879000E+00  3.25840000E-01  1.02741000E-01  3.60000000E-02  7.50000000E-01
  3.38650000E+01  5.09479000E+00  1.15879000E+00  3.25840000E-01  1.02741000E-01
  3.60000000E-02  7.50000000E-01  3.38650000E+01  5.09479000E+00  1.15879000E+00
  3.25840000E-01  1.02741000E-01  3.60000000E-02  7.50000000E-01  3.38650000E+01
  5.09479000E+00  1.15879000E+00  3.25840000E-01  1.02741000E-01  3.60000000E-02
  7.50000000E-01  1.05819000E+05  1.58720000E+04  3.61965000E+03  1.03080000E+03
  3.39908000E+02  1.24538000E+02  1.24538000E+02  4.95135000E+01  2.08056000E+01
  6.58346000E+00  2.56468000E+00  5.59763000E-01  1.83273000E-01  4.83000000E-02
  5.89776000E+02  1.39849000E+02  4.51413000E+01  1.68733000E+01  2.77152000E+00
  6.74110000E+00  2.77152000E+00  1.02387000E+00  3.81368000E-01  1.09437000E-01
  7.50000000E-01
Contraction coefficients                   R   N=         126
  1.96665025E-03  1.52306019E-02  7.61269097E-02  2.60801033E-01  6.16462078E-01
  2.21006028E-01  1.14660081E-01  9.19999648E-01 -3.03068213E-03  1.00000000E+00
  1.00000000E+00  1.00000000E+00  1.00000000E+00  1.96665025E-03  1.52306019E-02
  7.61269097E-02  2.60801033E-01  6.16462078E-01  2.21006028E-01  1.14660081E-01
  9.19999648E-01 -3.03068213E-03  1.00000000E+00  1.00000000E+00  1.00000000E+00
  1.00000000E+00  1.96665025E-03  1.52306019E-02  7.61269097E-02  2.60801033E-01
  6.16462078E-01  2.21006028E-01  1.14660081E-01  9.19999648E-01 -3.03068213E-03
  1.00000000E+00  1.00000000E+00  1.00000000E+00  1.00000000E+00  1.96665025E-03
  1.52306019E-02  7.61269097E-02  2.60801033E-01  6.16462078E-01  2.21006028E-01
  1.14660081E-01  9.19999648E-01 -3.03068213E-03  1.00000000E+00  1.00000000E+00
  1.00000000E+00  1.00000000E+00  2.54938145E-02  1.90373109E-01  8.52161486E-01
  1.00000000E+00  1.00000000E+00  1.00000000E+00  1.00000000E+00  2.54938145E-02
  1.90373109E-01  8.52161486E-01  1.00000000E+00  1.00000000E+00  1.00000000E+00
  1.00000000E+00  2.54938145E-02  1.90373109E-01  8.52161486E-01  1.00000000E+00
  1.00000000E+00  1.00000000E+00  1.00000000E+00  2.54938145E-02  1.90373109E-01
  8.52161486E-01  1.00000000E+00  1.00000000E+00  1.00000000E+00  1.00000000E+00
  2.54938145E-02  1.90373109E-01  8.52161486E-01  1.00000000E+00  1.00000000E+00
  1.00000000E+00  1.00000000E+00  2.54938145E-02  1.90373109E-01  8.52161486E-01
  1.00000000E+00  1.00000000E+00  1.00000000E+00  1.00000000E+00  2.54938145E-02
  1.90373109E-01  8.52161486E-01  1.00000000E+00  1.00000000E+00  1.00000000E+00
  1.00000000E+00  7.38000247E-04  5.71800191E-03  2.94950099E-02  1.17286039E-01
  3.62949121E-01  5.84149195E-01  1.34176973E-01  6.24249876E-01  2.91755942E-01
  1.00000000E+00  1.00000000E+00  1.00000000E+00  1.00000000E+00  1.00000000E+00
  3.66556935E-03  2.83679194E-02  1.24756603E-01  3.39654631E-01  7.47585963E-01
 -1.57224381E+00  9.92388882E-01  1.00000000E+00  1.00000000E+00  1.00000000E+00
  1.00000000E+00
P(S=P) Contraction coefficients            R   N=         126
  0.00000000E+00  0.00000000E+00  0.00000000E+00  0.00000000E+00  0.00000000E+00
  0.00000000E+00  4.02486927E-02  2.37593957E-01  8.15853851E-01  1.00000000E+00
  1.00000000E+00  1.00000000E+00  0.00000000E+00  0.00000000E+00  0.00000000E+00
  0.00000000E+00  0.00000000E+00  0.00000000E+00  0.00000000E+00  4.02486927E-02
  2.37593957E-01  8.15853851E-01  1.00000000E+00  1.00000000E+00  1.00000000E+00
  0.00000000E+00  0.00000000E+00  0.00000000E+00  0.00000000E+00  0.00000000E+00
  0.00000000E+00  0.00000000E+00  4.02486927E-02  2.37593957E-01  8.15853851E-01
  1.00000000E+00  1.00000000E+00  1.00000000E+00  0.00000000E+00  0.00000000E+00
  0.00000000E+00  0.00000000E+00  0.00000000E+00  0.00000000E+00  0.00000000E+00
  4.02486927E-02  2.37593957E-01  8.15853851E-01  1.00000000E+00  1.00000000E+00
  1.00000000E+00  0.00000000E+00  0.00000000E+00  0.00000000E+00  0.00000000E+00
  0.00000000E+00  0.00000000E+00  0.00000000E+00  0.00000000E+00  0.00000000E+00
  0.00000000E+00  0.00000000E+00  0.00000000E+00  0.00000000E+00  0.00000000E+00
  0.00000000E+00  0.00000000E+00  0.00000000E+00  0.00000000E+00  0.00000000E+00
  0.00000000E+00  0.00000000E+00  0.00000000E+00  0.00000000E+00  0.00000000E+00
  0.00000000E+00  0.00000000E+00  0.00000000E+00  0.00000000E+00  0.00000000E+00
  0.00000000E+00  0.00000000E+00  0.00000000E+00  0.00000000E+00  0.00000000E+00
  0.00000000E+00  0.00000000E+00  0.00000000E+00  0.00000000E+00  0.00000000E+00
  0.00000000E+00  0.00000000E+00  0.00000000E+00  0.00000000E+00  0.00000000E+00
  0.00000000E+00  0.00000000E+00  0.00000000E+00  0.00000000E+00  0.00000000E+00
  0.00000000E+00  0.00000000E+00  0.00000000E+00  0.00000000E+00  0.00000000E+00
  0.00000000E+00  0.00000000E+00  0.00000000E+00  0.00000000E+00  0.00000000E+00
  0.00000000E+00  0.00000000E+00  0.00000000E+00  0.00000000E+00  1.00000000E+00
  0.00000000E+00  0.00000000E+00  0.00000000E+00  0.00000000E+00  0.00000000E+00
  0.00000000E+00  0.00000000E+00  0.00000000E+00  0.00000000E+00  0.00000000E+00
  0.00000000E+00
Coordinates of each shell                  R   N=         216
  8.81897087E-01  3.31491153E+00  6.44411823E-02  8.81897087E-01  3.31491153E+00
  6.44411823E-02  8.81897087E-01  3.31491153E+00  6.44411823E-02  8.81897087E-01
  3.31491153E+00  6.44411823E-02  8.81897087E-01  3.31491153E+00  6.44411823E-02
  8.81897087E-01  3.31491153E+00  6.44411823E-02  5.66162722E-03  6.62659067E-01
 -6.15327504E-01  5.66162722E-03  6.62659067E-01 -6.15327504E-01  5.66162722E-03
  6.62659067E-01 -6.15327504E-01  5.66162722E-03  6.62659067E-01 -6.15327504E-01
  5.66162722E-03  6.62659067E-01 -6.15327504E-01  5.66162722E-03  6.62659067E-01
 -6.15327504E-01 -2.27739245E+00 -1.75940260E-01  8.09384429E-01 -2.27739245E+00
 -1.75940260E-01  8.09384429E-01 -2.27739245E+00 -1.75940260E-01  8.09384429E-01
 -2.27739245E+00 -1.75940260E-01  8.09384429E-01 -2.27739245E+00 -1.75940260E-01
  8.09384429E-01 -2.27739245E+00 -1.75940260E-01  8.09384429E-01 -4.41031496E+00
 -9.30901562E-01 -2.85106844E-01 -4.41031496E+00 -9.30901562E-01 -2.85106844E-01
 -4.41031496E+00 -9.30901562E-01 -2.85106844E-01 -4.41031496E+00 -9.30901562E-01
 -2.85106844E-01 -4.41031496E+00 -9.30901562E-01 -2.85106844E-01 -4.41031496E+00
 -9.30901562E-01 -2.85106844E-01 -4.60453518E+00 -1.03964728E+00 -2.32485206E+00
 -4.60453518E+00 -1.03964728E+00 -2.32485206E+00 -4.60453518E+00 -1.03964728E+00
 -2.32485206E+00 -4.60453518E+00 -1.03964728E+00 -2.32485206E+00 -4.60453518E+00
 -1.03964728E+00 -2.32485206E+00  2.66595028E+00  3.81298866E+00 -8.57495435E-01
  2.66595028E+00  3.81298866E+00 -8.57495435E-01  2.66595028E+00  3.81298866E+00
 -8.57495435E-01  2.66595028E+00  3.81298866E+00 -8.57495435E-01  2.66595028E+00
  3.81298866E+00 -8.57495435E-01 -6.05373279E+00 -1.47722824E+00  8.08356107E-01
 -6.05373279E+00 -1.47722824E+00  8.08356107E-01 -6.05373279E+00 -1.47722824E+00
  8.08356107E-01 -6.05373279E+00 -1.47722824E+00  8.08356107E-01 -6.05373279E+00
 -1.47722824E+00  8.08356107E-01 -2.13748167E+00 -1.10182708E-01  2.85794665E+00
 -2.13748167E+00 -1.10182708E-01  2.85794665E+00 -2.13748167E+00 -1.10182708E-01
  2.85794665E+00 -2.13748167E+00 -1.10182708E-01  2.85794665E+00 -2.13748167E+00
 -1.10182708E-01  2.85794665E+00 -2.91481040E-01  4.77610041E-01 -2.64434912E+00
 -2.91481040E-01  4.77610041E-01 -2.64434912E+00 -2.91481040E-01  4.77610041E-01
 -2.64434912E+00 -2.91481040E-01  4.77610041E-01 -2.64434912E+00 -2.91481040E-01
  4.77610041E-01 -2.64434912E+00  1.41400128E+00  3.47844633E+00  2.05939666E+00
  1.41400128E+00  3.47844633E+00  2.05939666E+00  1.41400128E+00  3.47844633E+00
  2.05939666E+00  1.41400128E+00  3.47844633E+00  2.05939666E+00  1.41400128E+00
  3.47844633E+00  2.05939666E+00 -6.39290064E-01  4.61985228E+00 -4.34709156E-01
 -6.39290064E-01  4.61985228E+00 -4.34709156E-01 -6.39290064E-01  4.61985228E+00
 -4.34709156E-01 -6.39290064E-01  4.61985228E+00 -4.34709156E-01 -6.39290064E-01
  4.61985228E+00 -4.34709156E-01  2.61455655E+00 -1.58742422E+00  4.09034574E-02
  2.61455655E+00 -1.58742422E+00  4.09034574E-02  2.61455655E+00 -1.58742422E+00
  4.09034574E-02  2.61455655E+00 -1.58742422E+00  4.09034574E-02  2.61455655E+00
 -1.58742422E+00  4.09034574E-02  2.61455655E+00 -1.58742422E+00  4.09034574E-02
  2.61455655E+00 -1.58742422E+00  4.09034574E-02  2.61455655E+00 -1.58742422E+00
  4.09034574E-02  2.61455655E+00 -1.58742422E+00  4.09034574E-02  2.61455655E+00
 -1.58742422E+00  4.09034574E-02  2.61455655E+00 -1.58742422E+00  4.09034574E-02
  2.61455655E+00 -1.58742422E+00  4.09034574E-02  2.61455655E+00 -1.58742422E+00
  4.09034574E-02
Constraint Structure                       R   N=          36
  8.81897087E-01  3.31491153E+00  6.44411823E-02  5.66162722E-03  6.62659067E-01
 -6.15327504E-01 -2.27739245E+00 -1.75940260E-01  8.09384429E-01 -4.41031496E+00
 -9.30901562E-01 -2.85106844E-01 -4.60453518E+00 -1.03964728E+00 -2.32485206E+00
  2.66595028E+00  3.81298866E+00 -8.57495435E-01 -6.05373279E+00 -1.47722824E+00
  8.08356107E-01 -2.13748167E+00 -1.10182708E-01  2.85794665E+00 -2.91481040E-01
  4.77610041E-01 -2.64434912E+00  1.41400128E+00  3.47844633E+00  2.05939666E+00
 -6.39290064E-01  4.61985228E+00 -4.34709156E-01  2.61455655E+00 -1.58742422E+00
  4.09034574E-02
Num ILSW                                   I              100
ILSW                                       I   N=         100
           0           0           0           0           2           0
           0           0           0           0         402          -1
           5           0           0           0           0           0
           0           0           0           0           0           0
           1           0           0           0           0           0
           0           0      100000           0          -1           0
           0           0           0           0           0           0
           0           0           0           1           0           0
           0           0           1           0           0           0
           0           0           4          41           0           0
           0           0           5           0           0           0
           0           0           0           0           0           0
           0           0           0           0           0           0
           0           0           0           0           0           0
           0           0           0           0           0           0
           0           0           0           0           0           0
           0           0           0           0
Num RLSW                                   I               41
RLSW                                       R   N=          41
  8.00000000E-01  7.20000000E-01  1.00000000E+00  8.10000000E-01  2.00000000E-01
  0.00000000E+00  0.00000000E+00  1.00000000E+00  0.00000000E+00  0.00000000E+00
  0.00000000E+00  0.00000000E+00  1.00000000E+00  0.00000000E+00  0.00000000E+00
  0.00000000E+00  0.00000000E+00  1.00000000E+00  0.00000000E+00  0.00000000E+00
  0.00000000E+00  0.00000000E+00  1.00000000E+00  0.00000000E+00  0.00000000E+00
  0.00000000E+00  0.00000000E+00  1.00000000E+00  0.00000000E+00  0.00000000E+00
  0.00000000E+00  0.00000000E+00  0.00000000E+00  0.00000000E+00  0.00000000E+00
  0.00000000E+00  0.00000000E+00  0.00000000E+00  1.00000000E+00  1.00000000E+00
  0.00000000E+00
MxBond                                     I                4
NBond                                      I   N=          12
           4           4           3           3           1           1
           1           1           1           1           1           1
IBond                                      I   N=          48
           2           6          10          11           1           3
           9          12           2           4           8           0
           3           5           7           0           4           0
           0           0           1           0           0           0
           4           0           0           0           3           0
           0           0           2           0           0           0
           1           0           0           0           1           0
           0           0           2           0           0           0
RBond                                      R   N=          48
  1.00000000E+00  1.00000000E+00  1.00000000E+00  1.00000000E+00  1.00000000E+00
  1.00000000E+00  1.00000000E+00  1.00000000E+00  1.00000000E+00  2.00000000E+00
  1.00000000E+00  0.00000000E+00  2.00000000E+00  1.00000000E+00  1.00000000E+00
  0.00000000E+00  1.00000000E+00  0.00000000E+00  0.00000000E+00  0.00000000E+00
  1.00000000E+00  0.00000000E+00  0.00000000E+00  0.00000000E+00  1.00000000E+00
  0.00000000E+00  0.00000000E+00  0.00000000E+00  1.00000000E+00  0.00000000E+00
  0.00000000E+00  0.00000000E+00  1.00000000E+00  0.00000000E+00  0.00000000E+00
  0.00000000E+00  1.00000000E+00  0.00000000E+00  0.00000000E+00  0.00000000E+00
  1.00000000E+00  0.00000000E+00  0.00000000E+00  0.00000000E+00  1.00000000E+00
  0.00000000E+00  0.00000000E+00  0.00000000E+00
Virial Ratio                               R      2.003057578122862E+00
SCF Energy                                 R     -6.168939576129487E+02
Total Energy                               R     -6.168939576129487E+02
RMS Density                                R      7.773352589613283E-12
Nuclear derivative order                   I                0
External E-field                           R   N=          35
  0.00000000E+00  0.00000000E+00  0.00000000E+00  0.00000000E+00  0.00000000E+00
  0.00000000E+00  0.00000000E+00  0.00000000E+00  0.00000000E+00  0.00000000E+00
  0.00000000E+00  0.00000000E+00  0.00000000E+00  0.00000000E+00  0.00000000E+00
  0.00000000E+00  0.00000000E+00  0.00000000E+00  0.00000000E+00  0.00000000E+00
  0.00000000E+00  0.00000000E+00  0.00000000E+00  0.00000000E+00  0.00000000E+00
  0.00000000E+00  0.00000000E+00  0.00000000E+00  0.00000000E+00  0.00000000E+00
  0.00000000E+00  0.00000000E+00  0.00000000E+00  0.00000000E+00  0.00000000E+00
IOpCl                                      I                0
IROHF                                      I                0
Alpha Orbital Energies                     R   N=         167
 -1.01533854E+02 -1.02478881E+01 -1.01940248E+01 -1.01841732E+01 -1.01818040E+01
 -9.44827155E+00 -7.21260038E+00 -7.20318937E+00 -7.20304055E+00 -8.67521708E-01
 -7.87250629E-01 -7.42347775E-01 -6.40770465E-01 -5.77931048E-01 -4.85381048E-01
 -4.74165455E-01 -4.54032535E-01 -4.15555892E-01 -3.96396853E-01 -3.76901122E-01
 -3.65698994E-01 -3.06102725E-01 -2.98409555E-01 -2.80765142E-01 -3.31449215E-02
 -7.50646457E-03  6.14937482E-03  7.62139283E-03  2.18393143E-02  2.82502810E-02
  3.81750639E-02  4.07026376E-02  6.36097330E-02  6.45674951E-02  7.27301905E-02
  8.34437115E-02  8.78729867E-02  9.85256358E-02  1.11133921E-01  1.16150686E-01
  1.18355875E-01  1.21906829E-01  1.29521448E-01  1.29815548E-01  1.37196596E-01
  1.41778761E-01  1.50682243E-01  1.56100744E-01  1.60124663E-01  1.64482059E-01
  1.70427380E-01  1.86071450E-01  1.91141505E-01  2.14405626E-01  2.19783953E-01
  2.28043924E-01  2.45485566E-01  2.61432306E-01  2.70456565E-01  2.89124545E-01
  3.41773139E-01  3.58306110E-01  3.91016548E-01  4.24573956E-01  4.34858998E-01
  4.46943317E-01  4.59368273E-01  4.78193769E-01  4.87569262E-01  4.95691684E-01
  5.23426286E-01  5.30079771E-01  5.66881478E-01  5.88469537E-01  6.00267190E-01
  6.20452579E-01  6.34383081E-01  6.48174827E-01  6.59640789E-01  6.64748556E-01
  6.92429141E-01  7.08369873E-01  7.35201342E-01  7.38115242E-01  7.86187423E-01
  8.13403347E-01  8.30592034E-01  8.61842260E-01  8.93623866E-01  9.00848857E-01
  9.45689591E-01  9.57635210E-01  1.00683716E+00  1.02716677E+00  1.06509111E+00
  1.07495155E+00  1.12979057E+00  1.17750887E+00  1.19903204E+00  1.29545081E+00
  1.39585399E+00  1.43081948E+00  1.43820080E+00  1.47549818E+00  1.50048236E+00
  1.54265304E+00  1.56663511E+00  1.58265417E+00  1.61023866E+00  1.62295246E+00
  1.66731636E+00  1.69413366E+00  1.69876952E+00  1.72837096E+00  1.77117559E+00
  1.78974644E+00  1.87215118E+00  1.87737537E+00  1.94275911E+00  1.97988982E+00
  2.02031024E+00  2.07454056E+00  2.11277348E+00  2.18055010E+00  2.19327268E+00
  2.20942420E+00  2.24998446E+00  2.29401873E+00  2.30731431E+00  2.35374720E+00
  2.36713907E+00  2.43805659E+00  2.46352781E+00  2.51243439E+00  2.54100864E+00
  2.55346417E+00  2.57259147E+00  2.58749312E+00  2.60672536E+00  2.64143551E+00
  2.73180866E+00  2.73898977E+00  2.75074117E+00  2.78104914E+00  2.85341503E+00
  2.86613023E+00  2.93175355E+00  3.07294768E+00  3.09116336E+00  3.18344792E+00
  3.39733906E+00  3.50873355E+00  3.69641732E+00  3.71744945E+00  3.84754979E+00
  3.95353727E+00  4.13928937E+00  4.29419929E+00  9.75603741E+00  2.37225977E+01
  2.37949656E+01  2.39428914E+01  2.42572523E+01  2.59305546E+01  2.59755592E+01
  2.64460914E+01  2.15745757E+02
Alpha MO coefficients                      R   N=       27889
  2.04868087E-07 -4.58099559E-07 -3.81508145E-06 -2.30653491E-06 -1.99332164E-06
 -9.64375217E-08  2.59371195E-05  1.51128564E-05  1.28843686E-05  2.19804315E-05
  5.27612124E-05  2.76781958E-05  2.81191607E-05 -1.64084928E-03 -1.61584014E-04
  4.98835398E-04  2.50919158E-05  7.72225638E-06 -1.56483659E-06 -4.10736280E-06
  1.55787562E-05  1.97264335E-06  1.55143036E-06 -3.28054780E-06  1.16382424E-05
 -1.22513518E-05  4.83331921E-06 -1.45981283E-05 -1.14940719E-05  2.10238097E-05
 -1.68050105E-05  1.72325294E-04  1.17285998E-04 -1.21776145E-04 -1.59214672E-05
  3.75706474E-03 -4.67887895E-04  4.53076879E-04  8.25100002E-04  8.78045684E-06
 -1.46900718E-06  3.27088060E-06 -3.31065751E-06  7.47796728E-06 -5.90715757E-07
  1.72665537E-06  3.90742088E-06 -2.65186564E-06 -4.15784460E-06 -8.65505836E-06
 -2.37527673E-05  1.00225340E-05  2.53119809E-05  2.31459862E-05  1.47661057E-05
 -1.00904824E-05 -5.61620057E-05 -1.12346718E-03 -1.20440376E-03 -3.80532553E-04
 -9.83992077E-05  6.39578063E-06  5.72491303E-06 -5.94243044E-06  9.97663828E-07
 -4.19656043E-06  3.69333687E-07 -1.08807619E-06 -1.87271474E-06  6.05963662E-07
  7.46005434E-07  1.08494874E-05  9.09210073E-06 -2.08359195E-06  1.43488058E-06
 -5.74376084E-05 -8.82601103E-05 -2.12337174E-05  6.30575307E-05 -1.66190333E-03
 -3.42636214E-04 -1.79660240E-04 -1.18440809E-04 -5.24248596E-06 -1.88748131E-06
 -3.61088287E-06 -1.86208306E-06 -1.86325844E-06 -3.09731393E-06  3.57943870E-05
  5.93594388E-05  4.99388580E-05  6.94249037E-06 -1.25920977E-09  6.43473184E-06
  1.16871120E-05 -9.05419432E-05  7.21142724E-05  2.20812787E-04  9.57528569E-06
  1.36483612E-05 -1.22820813E-05  2.44395720E-06 -2.16869985E-05 -5.38707662E-05
 -1.33299016E-04 -9.47244369E-07 -2.34097865E-07  1.22560867E-06  5.87838695E-06
 -3.62519073E-05  5.56587423E-05  1.47740495E-04 -1.09736328E-05  1.75945036E-06
  1.38470675E-05 -1.17317241E-06 -6.10425591E-05 -1.30800737E-04  1.17787286E-04
 -5.42300945E-06  1.78643747E-06 -1.50636176E-05  9.51710401E-06 -7.14481605E-05
 -2.19589458E-05  7.54109180E-05 -4.49561758E-06  1.25205445E-05  1.75785393E-05
 -8.69410307E-06  4.98942126E-05 -1.45672670E-04 -3.13344092E-04  1.77172506E-06
 -6.88870044E-06 -3.76289397E-07  4.11609660E-01  6.54076194E-01  1.50038483E-02