 Entering Gaussian System, Link 0=g09
 Input=input.dat
 Output=output.dat
 Initial command:
 /cerebro/home/software/apps/g09/l1.exe /scratch/crawdad/Gau-31982.inp -scrdir=/scratch/crawdad/
 Entering Link 1 = /cerebro/home/software/apps/g09/l1.exe PID=     31990.
  
 Copyright (c) 1988,1990,1992,1993,1995,1998,2003,2009, Gaussian, Inc.
                  All Rights Reserved.
  
 This is part of the Gaussian(R) 09 program.  It is based on
 the Gaussian(R) 03 system (copyright 2003, Gaussian, Inc.),
 the Gaussian(R) 98 system (copyright 1998, Gaussian, Inc.),
 the Gaussian(R) 94 system (copyright 1995, Gaussian, Inc.),
 the Gaussian 92(TM) system (copyright 1992, Gaussian, Inc.),
 the Gaussian 90(TM) system (copyright 1990, Gaussian, Inc.),
 the Gaussian 88(TM) system (copyright 1988, Gaussian, Inc.),
 the Gaussian 86(TM) system (copyright 1986, Carnegie Mellon
 University), and the Gaussian 82(TM) system (copyright 1983,
 Carnegie Mellon University). Gaussian is a federally registered
 trademark of Gaussian, Inc.
  
 This software contains proprietary and confidential information,
 including trade secrets, belonging to Gaussian, Inc.
  
 This software is provided under written license and may be
 used, copied, transmitted, or stored only in accord with that
 written license.
  
 The following legend is applicable only to US Government
 contracts under FAR:
  
                    RESTRICTED RIGHTS LEGEND
  
 Use, reproduction and disclosure by the US Government is
 subject to restrictions as set forth in subparagraphs (a)
 and (c) of the Commercial Computer Software - Restricted
 Rights clause in FAR 52.227-19.
  
 Gaussian, Inc.
 340 Quinnipiac St., Bldg. 40, Wallingford CT 06492
  
  
 ---------------------------------------------------------------
 Warning -- This program may not be used in any manner that
 competes with the business of Gaussian, Inc. or will provide
 assistance to any competitor of Gaussian, Inc.  The licensee
 of this program is prohibited from giving any competitor of
 Gaussian, Inc. access to this program.  By using this program,
 the user acknowledges that Gaussian, Inc. is engaged in the
 business of creating and licensing software in the field of
 computational chemistry and represents and warrants to the
 licensee that it is not a competitor of Gaussian, Inc. and that
 it will not use this program in any manner prohibited above.
 ---------------------------------------------------------------
  

 Cite this work as:
 Gaussian 09, Revision A.02,
 M. J. Frisch, G. W. Trucks, H. B. Schlegel, G. E. Scuseria, 
 M. A. Robb, J. R. Cheeseman, G. Scalmani, V. Barone, B. Mennucci, 
 G. A. Petersson, H. Nakatsuji, M. Caricato, X. Li, H. P. Hratchian, 
 A. F. Izmaylov, J. Bloino, G. Zheng, J. L. Sonnenberg, M. Hada, 
 M. Ehara, K. Toyota, R. Fukuda, J. Hasegawa, M. Ishida, T. Nakajima, 
 Y. Honda, O. Kitao, H. Nakai, T. Vreven, J. A. Montgomery, Jr., 
 J. E. Peralta, F. Ogliaro, M. Bearpark, J. J. Heyd, E. Brothers, 
 K. N. Kudin, V. N. Staroverov, R. Kobayashi, J. Normand, 
 K. Raghavachari, A. Rendell, J. C. Burant, S. S. Iyengar, J. Tomasi, 
 M. Cossi, N. Rega, J. M. Millam, M. Klene, J. E. Knox, J. B. Cross, 
 V. Bakken, C. Adamo, J. Jaramillo, R. Gomperts, R. E. Stratmann, 
 O. Yazyev, A. J. Austin, R. Cammi, C. Pomelli, J. W. Ochterski, 
 R. L. Martin, K. Morokuma, V. G. Zakrzewski, G. A. Voth, 
 P. Salvador, J. J. Dannenberg, S. Dapprich, A. D. Daniels, 
 O. Farkas, J. B. Foresman, J. V. Ortiz, J. Cioslowski, 
 and D. J. Fox, Gaussian, Inc., Wallingford CT, 2009.
 
 ******************************************
 Gaussian 09:  EM64L-G09RevA.02 11-Jun-2009
                10-Jul-2013 
 ******************************************
 %chk=vibave
 %mem=1000mb
 %nproc=1
 Will use up to    1 processors via shared memory.
 ----------------------------------------------------------------------
 #P B3LYP/6-311++G** scf(conver=11) int=ultrafine polar=optrot cphf(rdf
 req,conver=11)
 ----------------------------------------------------------------------
 1/38=1,83=21/1;
 2/12=2,17=6,18=5,40=1/2;
 3/5=4,6=6,7=1111,11=2,16=1,25=1,30=1,36=2,74=-5,75=-5/1,2,3;
 4//1;
 5/5=2,6=11,38=5,96=-2,98=1/2;
 8/6=4,10=90,11=11/1;
 10/6=1,7=11,13=10,46=8,60=-2,72=3/2;
 6/7=2,8=2,9=2,10=2,28=1/1;
 99/5=1,9=1/99;
 Leave Link    1 at Wed Jul 10 16:50:10 2013, MaxMem=  131072000 cpu:       0.1
 (Enter /cerebro/home/software/apps/g09/l101.exe)
 -----------------------------
 (R)-3-chloro-1-butene tau=120
 -----------------------------
 Symbolic Z-matrix:
 Charge =  0 Multiplicity = 1
 C                     0.47168   1.75265   0.04357 
 C                     0.00544   0.34964  -0.32859 
 C                    -1.20574  -0.09679   0.42731 
 C                    -2.33246  -0.4979   -0.1558 
 H                    -2.42819  -0.55164  -1.23825 
 H                     1.36923   2.01976  -0.50496 
 H                    -3.19955  -0.78937   0.42823 
 H                    -1.12894  -0.0614    1.5054 
 H                    -0.14862   0.26253  -1.3476 
 H                     0.6684    1.82879   1.06942 
 H                    -0.34326   2.49102  -0.22035 
 Cl                    1.38604  -0.83735   0.02289 
 
 NAtoms=     12 NQM=     12 NQMF=      0 NMic=      0 NMicF=      0 NTot=     12.
                    Isotopes and Nuclear Properties:
 (Nuclear quadrupole moments (NQMom) in fm**2, nuclear magnetic moments (NMagM)
  in nuclear magnetons)

  Atom         1           2           3           4           5           6           7           8           9          10
 IAtWgt=          12          12          12          12           1           1           1           1           1           1
 AtmWgt=  12.0000000  12.0000000  12.0000000  12.0000000   1.0078250   1.0078250   1.0078250   1.0078250   1.0078250   1.0078250
 NucSpn=           0           0           0           0           1           1           1           1           1           1
 AtZEff=   0.0000000   0.0000000   0.0000000   0.0000000   0.0000000   0.0000000   0.0000000   0.0000000   0.0000000   0.0000000
 NQMom=    0.0000000   0.0000000   0.0000000   0.0000000   0.0000000   0.0000000   0.0000000   0.0000000   0.0000000   0.0000000
 NMagM=    0.0000000   0.0000000   0.0000000   0.0000000   2.7928460   2.7928460   2.7928460   2.7928460   2.7928460   2.7928460

  Atom        11          12
 IAtWgt=           1          35
 AtmWgt=   1.0078250  34.9688527
 NucSpn=           1           3
 AtZEff=   0.0000000   0.0000000
 NQMom=    0.0000000  -8.1650000
 NMagM=    2.7928460   0.8218740
 Using perturbation frequencies:    0.071980    0.077357    0.104503    0.128347
 Leave Link  101 at Wed Jul 10 16:50:11 2013, MaxMem=  131072000 cpu:       0.2
 (Enter /cerebro/home/software/apps/g09/l202.exe)
                          Input orientation:                          
 ---------------------------------------------------------------------
 Center     Atomic      Atomic             Coordinates (Angstroms)
 Number     Number       Type             X           Y           Z
 ---------------------------------------------------------------------
      1          6           0        0.471682    1.752653    0.043569
      2          6           0        0.005436    0.349636   -0.328594
      3          6           0       -1.205737   -0.096788    0.427312
      4          6           0       -2.332459   -0.497900   -0.155796
      5          1           0       -2.428185   -0.551636   -1.238246
      6          1           0        1.369227    2.019763   -0.504959
      7          1           0       -3.199554   -0.789370    0.428232
      8          1           0       -1.128943   -0.061400    1.505400
      9          1           0       -0.148624    0.262532   -1.347601
     10          1           0        0.668396    1.828791    1.069416
     11          1           0       -0.343264    2.491020   -0.220350
     12         17           0        1.386041   -0.837354    0.022888
 ---------------------------------------------------------------------
                    Distance matrix (angstroms):
                    1          2          3          4          5
     1  C    0.000000
     2  C    1.524581   0.000000
     3  C    2.526149   1.495870   0.000000
     4  C    3.601103   2.492775   1.330566   0.000000
     5  H    3.919443   2.749958   2.115502   1.088003   0.000000
     6  H    1.085273   2.163413   3.461121   4.490325   4.644367
     7  H    4.481944   3.484548   2.110681   1.085309   1.851668
     8  H    2.826613   2.195290   1.081398   2.097272   3.075053
     9  H    2.130867   1.034261   2.096882   2.601497   2.423062
    10  H    1.047309   2.140525   2.762702   3.989957   4.536579
    11  H    1.130919   2.172288   2.803583   3.590920   3.826325
    12  Cl   2.746747   1.854335   2.725676   3.738234   4.027457
                    6          7          8          9         10
     6  H    0.000000
     7  H    5.443880   0.000000
     8  H    3.822779   2.444925   0.000000
     9  H    2.470178   3.683510   3.034068   0.000000
    10  H    1.733866   4.714543   2.644490   2.993770   0.000000
    11  H    1.798808   4.397728   3.179678   2.504943   1.767908
    12  Cl   2.905517   4.603725   3.020777   2.333063   2.952722
                   11         12
    11  H    0.000000
    12  Cl   3.758688   0.000000
 Stoichiometry    C4H7Cl
 Framework group  C1[X(C4H7Cl)]
 Deg. of freedom    30
 Full point group                 C1      NOp   1
 Largest Abelian subgroup         C1      NOp   1
 Largest concise Abelian subgroup C1      NOp   1
                         Standard orientation:                         
 ---------------------------------------------------------------------
 Center     Atomic      Atomic             Coordinates (Angstroms)
 Number     Number       Type             X           Y           Z
 ---------------------------------------------------------------------
      1          6           0        0.469712    1.753051    0.043570
      2          6           0        0.005288    0.349429   -0.328593
      3          6           0       -1.205303   -0.098569    0.427314
      4          6           0       -2.331503   -0.501144   -0.155794
      5          1           0       -2.427160   -0.555004   -1.238244
      6          1           0        1.366908    2.021327   -0.504958
      7          1           0       -3.198218   -0.793740    0.428233
      8          1           0       -1.128556   -0.063081    1.505401
      9          1           0       -0.148658    0.262125   -1.347599
     10          1           0        0.666326    1.829444    1.069418
     11          1           0       -0.346194    2.490358   -0.220349
     12         17           0        1.387435   -0.835767    0.022889
 ---------------------------------------------------------------------
 Rotational constants (GHZ):      5.5689867      2.7479422      2.0020984
 Leave Link  202 at Wed Jul 10 16:50:11 2013, MaxMem=  131072000 cpu:       0.0
 (Enter /cerebro/home/software/apps/g09/l301.exe)
 Standard basis: 6-311++G(d,p) (5D, 7F)
 Ernie: Thresh=  0.10000D-02 Tol=  0.10000D-05 Strict=F.
 There are   167 symmetry adapted basis functions of A   symmetry.
 Integral buffers will be    131072 words long.
 Raffenetti 2 integral format.
 Two-electron integral symmetry is turned on.
   167 basis functions,   260 primitive gaussians,   172 cartesian basis functions
    24 alpha electrons       24 beta electrons
       nuclear repulsion energy       212.0066656764 Hartrees.
 IExCor=  402 DFT=T Ex+Corr=B3LYP ExCW=0 ScaHFX=  0.200000
 ScaDFX=  0.800000  0.720000  1.000000  0.810000 ScalE2=  1.000000  1.000000
 IRadAn=      5 IRanWt=     -1 IRanGd=            0 ICorTp=0
 NAtoms=   12 NActive=   12 NUniq=   12 SFac= 7.50D-01 NAtFMM=   80 NAOKFM=F Big=F
 Leave Link  301 at Wed Jul 10 16:50:11 2013, MaxMem=  131072000 cpu:       0.1
 (Enter /cerebro/home/software/apps/g09/l302.exe)
 NPDir=0 NMtPBC=     1 NCelOv=     1 NCel=       1 NClECP=     1 NCelD=      1
         NCelK=      1 NCelE2=     1 NClLst=     1 CellRange=     0.0.
 One-electron integrals computed using PRISM.
 NBasis=   167 RedAO= T  NBF=   167
 NBsUse=   167 1.00D-06 NBFU=   167
 Precomputing XC quadrature grid using
 IXCGrd= 2 IRadAn=           5 IRanWt=          -1 IRanGd=           0 AccXCQ= 1.00D-10.
 NRdTot=    1019 NPtTot=      274288 NUsed=      281590 NTot=      281622
 NSgBfM=   172   172   172   172   172 NAtAll=    12    12.
 Leave Link  302 at Wed Jul 10 16:50:12 2013, MaxMem=  131072000 cpu:       0.6
 (Enter /cerebro/home/software/apps/g09/l303.exe)
 DipDrv:  MaxL=2.
 Leave Link  303 at Wed Jul 10 16:50:12 2013, MaxMem=  131072000 cpu:       0.1
 (Enter /cerebro/home/software/apps/g09/l401.exe)
 Harris functional with IExCor=  402 diagonalized for initial guess.
 ExpMin= 3.60D-02 ExpMax= 1.06D+05 ExpMxC= 3.62D+03 IAcc=3 IRadAn=         5 AccDes= 0.00D+00
 HarFok:  IExCor=  402 AccDes= 0.00D+00 IRadAn=         5 IDoV= 1
 ScaDFX=  1.000000  1.000000  1.000000  1.000000
 FoFCou: FMM=F IPFlag=           0 FMFlag=      100000 FMFlg1=           0
         NFxFlg=           0 DoJE=T BraDBF=F KetDBF=T FulRan=T
         Omega=  0.000000  0.000000  1.000000  0.000000  0.000000 ICntrl=     500 IOpCl=  0
         NMat0=    1 NMatS0=    1 NMatT0=    0 NMatD0=    1 NMtDS0=    0 NMtDT0=    0
         I1Cent=           4 NGrid=           0.
 Petite list used in FoFCou.
 Harris En= -616.914656784431    
 Initial guess orbital symmetries:
       Occupied  (A) (A) (A) (A) (A) (A) (A) (A) (A) (A) (A) (A)
                 (A) (A) (A) (A) (A) (A) (A) (A) (A) (A) (A) (A)
       Virtual   (A) (A) (A) (A) (A) (A) (A) (A) (A) (A) (A) (A)
                 (A) (A) (A) (A) (A) (A) (A) (A) (A) (A) (A) (A)
                 (A) (A) (A) (A) (A) (A) (A) (A) (A) (A) (A) (A)
                 (A) (A) (A) (A) (A) (A) (A) (A) (A) (A) (A) (A)
                 (A) (A) (A) (A) (A) (A) (A) (A) (A) (A) (A) (A)
                 (A) (A) (A) (A) (A) (A) (A) (A) (A) (A) (A) (A)
                 (A) (A) (A) (A) (A) (A) (A) (A) (A) (A) (A) (A)
                 (A) (A) (A) (A) (A) (A) (A) (A) (A) (A) (A) (A)
                 (A) (A) (A) (A) (A) (A) (A) (A) (A) (A) (A) (A)
                 (A) (A) (A) (A) (A) (A) (A) (A) (A) (A) (A) (A)
                 (A) (A) (A) (A) (A) (A) (A) (A) (A) (A) (A) (A)
                 (A) (A) (A) (A) (A) (A) (A) (A) (A) (A) (A)
 The electronic state of the initial guess is 1-A.
 Leave Link  401 at Wed Jul 10 16:50:19 2013, MaxMem=  131072000 cpu:       7.5
 (Enter /cerebro/home/software/apps/g09/l502.exe)
 Closed shell SCF:
 Requested convergence on RMS density matrix=1.00D-11 within 128 cycles.
 Requested convergence on MAX density matrix=1.00D-09.
 Requested convergence on             energy=1.00D-09.
 No special actions if energy rises.
 Using DIIS extrapolation, IDIIS=  1040.
 Integral symmetry usage will be decided dynamically.
       281469 words used for storage of precomputed grid.
 Keep R1 ints in memory in canonical form, NReq=113664361.
 IEnd=      390694 IEndB=      390694 NGot=   131072000 MDV=    20042794
 LenX=    20042794 LenY=    20012769
 Symmetry not used in FoFDir.
 MinBra= 0 MaxBra= 2 Meth= 1.
 IRaf=       0 NMat=   1 IRICut=       1 DoRegI=T DoRafI=F ISym2E= 0 JSym2E=0.

 Cycle   1  Pass 1  IDiag  1:
 E= -616.715722186537    
 DIIS: error= 2.39D-02 at cycle   1 NSaved=   1.
 NSaved= 1 IEnMin= 1 EnMin= -616.715722186537     IErMin= 1 ErrMin= 2.39D-02
 ErrMax= 2.39D-02 EMaxC= 1.00D-01 BMatC= 2.08D-01 BMatP= 2.08D-01
 IDIUse=3 WtCom= 7.61D-01 WtEn= 2.39D-01
 Coeff-Com:  0.100D+01
 Coeff-En:   0.100D+01
 Coeff:      0.100D+01
 Gap=     0.389 Goal=   None    Shift=    0.000
 GapD=    0.389 DampG=1.000 DampE=0.500 DampFc=0.5000 IDamp=-1.
 Damping current iteration by 5.00D-01
 RMSDP=6.56D-03 MaxDP=1.49D-01              OVMax= 2.19D-01

 Cycle   2  Pass 1  IDiag  1:
 E= -616.789011149119     Delta-E=       -0.073288962582 Rises=F Damp=T
 DIIS: error= 5.85D-03 at cycle   2 NSaved=   2.
 NSaved= 2 IEnMin= 2 EnMin= -616.789011149119     IErMin= 2 ErrMin= 5.85D-03
 ErrMax= 5.85D-03 EMaxC= 1.00D-01 BMatC= 1.29D-02 BMatP= 2.08D-01
 IDIUse=3 WtCom= 9.41D-01 WtEn= 5.85D-02
 Coeff-Com:  0.370D-01 0.963D+00
 Coeff-En:   0.176D+00 0.824D+00
 Coeff:      0.451D-01 0.955D+00
 Gap=     0.286 Goal=   None    Shift=    0.000
 RMSDP=4.51D-03 MaxDP=2.20D-01 DE=-7.33D-02 OVMax= 1.26D-01

 Cycle   3  Pass 1  IDiag  1:
 E= -616.885733981836     Delta-E=       -0.096722832717 Rises=F Damp=F
 DIIS: error= 6.22D-03 at cycle   3 NSaved=   3.
 NSaved= 3 IEnMin= 3 EnMin= -616.885733981836     IErMin= 2 ErrMin= 5.85D-03
 ErrMax= 6.22D-03 EMaxC= 1.00D-01 BMatC= 5.24D-03 BMatP= 1.29D-02
 IDIUse=3 WtCom= 9.38D-01 WtEn= 6.22D-02
 Coeff-Com: -0.628D-01 0.348D+00 0.715D+00
 Coeff-En:   0.000D+00 0.000D+00 0.100D+01
 Coeff:     -0.589D-01 0.327D+00 0.732D+00
 Gap=     0.259 Goal=   None    Shift=    0.000
 RMSDP=1.87D-03 MaxDP=5.81D-02 DE=-9.67D-02 OVMax= 2.80D-02

 Cycle   4  Pass 1  IDiag  1:
 E= -616.889708203566     Delta-E=       -0.003974221730 Rises=F Damp=F
 DIIS: error= 3.29D-03 at cycle   4 NSaved=   4.
 NSaved= 4 IEnMin= 4 EnMin= -616.889708203566     IErMin= 4 ErrMin= 3.29D-03
 ErrMax= 3.29D-03 EMaxC= 1.00D-01 BMatC= 1.97D-03 BMatP= 5.24D-03
 IDIUse=3 WtCom= 9.67D-01 WtEn= 3.29D-02
 Coeff-Com: -0.374D-01 0.126D+00 0.444D+00 0.468D+00
 Coeff-En:   0.000D+00 0.000D+00 0.243D+00 0.757D+00
 Coeff:     -0.362D-01 0.122D+00 0.437D+00 0.477D+00
 Gap=     0.248 Goal=   None    Shift=    0.000
 RMSDP=5.63D-04 MaxDP=1.65D-02 DE=-3.97D-03 OVMax= 1.40D-02

 Cycle   5  Pass 1  IDiag  1:
 E= -616.891558357138     Delta-E=       -0.001850153572 Rises=F Damp=F
 DIIS: error= 5.94D-04 at cycle   5 NSaved=   5.
 NSaved= 5 IEnMin= 5 EnMin= -616.891558357138     IErMin= 5 ErrMin= 5.94D-04
 ErrMax= 5.94D-04 EMaxC= 1.00D-01 BMatC= 7.77D-05 BMatP= 1.97D-03
 IDIUse=3 WtCom= 9.94D-01 WtEn= 5.94D-03
 Coeff-Com: -0.138D-01 0.402D-01 0.181D+00 0.239D+00 0.553D+00
 Coeff-En:   0.000D+00 0.000D+00 0.000D+00 0.000D+00 0.100D+01
 Coeff:     -0.137D-01 0.400D-01 0.180D+00 0.238D+00 0.556D+00
 Gap=     0.248 Goal=   None    Shift=    0.000
 RMSDP=1.00D-04 MaxDP=3.59D-03 DE=-1.85D-03 OVMax= 6.46D-03

 Cycle   6  Pass 1  IDiag  1:
 E= -616.891625650082     Delta-E=       -0.000067292944 Rises=F Damp=F
 DIIS: error= 2.83D-04 at cycle   6 NSaved=   6.
 NSaved= 6 IEnMin= 6 EnMin= -616.891625650082     IErMin= 6 ErrMin= 2.83D-04
 ErrMax= 2.83D-04 EMaxC= 1.00D-01 BMatC= 1.51D-05 BMatP= 7.77D-05
 IDIUse=3 WtCom= 9.97D-01 WtEn= 2.83D-03
 Coeff-Com: -0.356D-02 0.681D-02 0.524D-01 0.786D-01 0.333D+00 0.533D+00
 Coeff-En:   0.000D+00 0.000D+00 0.000D+00 0.000D+00 0.158D+00 0.842D+00
 Coeff:     -0.355D-02 0.679D-02 0.523D-01 0.784D-01 0.332D+00 0.534D+00
 Gap=     0.248 Goal=   None    Shift=    0.000
 RMSDP=4.42D-05 MaxDP=1.42D-03 DE=-6.73D-05 OVMax= 2.14D-03

 Cycle   7  Pass 1  IDiag  1:
 E= -616.891640411910     Delta-E=       -0.000014761828 Rises=F Damp=F
 DIIS: error= 3.42D-05 at cycle   7 NSaved=   7.
 NSaved= 7 IEnMin= 7 EnMin= -616.891640411910     IErMin= 7 ErrMin= 3.42D-05
 ErrMax= 3.42D-05 EMaxC= 1.00D-01 BMatC= 4.27D-07 BMatP= 1.51D-05
 IDIUse=1 WtCom= 1.00D+00 WtEn= 0.00D+00
 Coeff-Com: -0.634D-03 0.285D-03 0.116D-01 0.181D-01 0.104D+00 0.231D+00
 Coeff-Com:  0.635D+00
 Coeff:     -0.634D-03 0.285D-03 0.116D-01 0.181D-01 0.104D+00 0.231D+00
 Coeff:      0.635D+00
 Gap=     0.248 Goal=   None    Shift=    0.000
 RMSDP=1.01D-05 MaxDP=3.68D-04 DE=-1.48D-05 OVMax= 1.71D-04

 Cycle   8  Pass 1  IDiag  1:
 E= -616.891640796536     Delta-E=       -0.000000384626 Rises=F Damp=F
 DIIS: error= 6.80D-06 at cycle   8 NSaved=   8.
 NSaved= 8 IEnMin= 8 EnMin= -616.891640796536     IErMin= 8 ErrMin= 6.80D-06
 ErrMax= 6.80D-06 EMaxC= 1.00D-01 BMatC= 1.81D-08 BMatP= 4.27D-07
 IDIUse=1 WtCom= 1.00D+00 WtEn= 0.00D+00
 Coeff-Com:  0.532D-04-0.357D-03 0.636D-03 0.126D-02 0.169D-01 0.547D-01
 Coeff-Com:  0.235D+00 0.692D+00
 Coeff:      0.532D-04-0.357D-03 0.636D-03 0.126D-02 0.169D-01 0.547D-01
 Coeff:      0.235D+00 0.692D+00
 Gap=     0.248 Goal=   None    Shift=    0.000
 RMSDP=1.90D-06 MaxDP=4.36D-05 DE=-3.85D-07 OVMax= 4.58D-05

 Cycle   9  Pass 1  IDiag  1:
 E= -616.891640813481     Delta-E=       -0.000000016945 Rises=F Damp=F
 DIIS: error= 2.30D-06 at cycle   9 NSaved=   9.
 NSaved= 9 IEnMin= 9 EnMin= -616.891640813481     IErMin= 9 ErrMin= 2.30D-06
 ErrMax= 2.30D-06 EMaxC= 1.00D-01 BMatC= 1.23D-09 BMatP= 1.81D-08
 IDIUse=1 WtCom= 1.00D+00 WtEn= 0.00D+00
 Coeff-Com:  0.430D-04-0.104D-03-0.475D-03-0.663D-03-0.212D-02-0.306D-03
 Coeff-Com:  0.223D-01 0.246D+00 0.735D+00
 Coeff:      0.430D-04-0.104D-03-0.475D-03-0.663D-03-0.212D-02-0.306D-03
 Coeff:      0.223D-01 0.246D+00 0.735D+00
 Gap=     0.248 Goal=   None    Shift=    0.000
 RMSDP=9.27D-07 MaxDP=3.46D-05 DE=-1.69D-08 OVMax= 8.85D-06

 Cycle  10  Pass 1  IDiag  1:
 E= -616.891640814692     Delta-E=       -0.000000001211 Rises=F Damp=F
 DIIS: error= 4.49D-07 at cycle  10 NSaved=  10.
 NSaved=10 IEnMin=10 EnMin= -616.891640814692     IErMin=10 ErrMin= 4.49D-07
 ErrMax= 4.49D-07 EMaxC= 1.00D-01 BMatC= 3.77D-11 BMatP= 1.23D-09
 IDIUse=1 WtCom= 1.00D+00 WtEn= 0.00D+00
 Coeff-Com:  0.105D-04-0.184D-04-0.169D-03-0.240D-03-0.115D-02-0.149D-02
 Coeff-Com:  0.103D-02 0.690D-01 0.254D+00 0.679D+00
 Coeff:      0.105D-04-0.184D-04-0.169D-03-0.240D-03-0.115D-02-0.149D-02
 Coeff:      0.103D-02 0.690D-01 0.254D+00 0.679D+00
 Gap=     0.248 Goal=   None    Shift=    0.000
 RMSDP=1.43D-07 MaxDP=5.89D-06 DE=-1.21D-09 OVMax= 1.82D-06

 Cycle  11  Pass 1  IDiag  1:
 E= -616.891640814724     Delta-E=       -0.000000000032 Rises=F Damp=F
 DIIS: error= 1.45D-07 at cycle  11 NSaved=  11.
 NSaved=11 IEnMin=11 EnMin= -616.891640814724     IErMin=11 ErrMin= 1.45D-07
 ErrMax= 1.45D-07 EMaxC= 1.00D-01 BMatC= 6.27D-12 BMatP= 3.77D-11
 IDIUse=1 WtCom= 1.00D+00 WtEn= 0.00D+00
 Coeff-Com:  0.202D-05-0.214D-05-0.511D-04-0.727D-04-0.395D-03-0.618D-03
 Coeff-Com: -0.101D-02 0.147D-01 0.658D-01 0.332D+00 0.590D+00
 Coeff:      0.202D-05-0.214D-05-0.511D-04-0.727D-04-0.395D-03-0.618D-03
 Coeff:     -0.101D-02 0.147D-01 0.658D-01 0.332D+00 0.590D+00
 Gap=     0.248 Goal=   None    Shift=    0.000
 RMSDP=3.44D-08 MaxDP=1.17D-06 DE=-3.21D-11 OVMax= 5.20D-07

 Cycle  12  Pass 1  IDiag  1:
 E= -616.891640814732     Delta-E=       -0.000000000008 Rises=F Damp=F
 DIIS: error= 2.11D-08 at cycle  12 NSaved=  12.
 NSaved=12 IEnMin=12 EnMin= -616.891640814732     IErMin=12 ErrMin= 2.11D-08
 ErrMax= 2.11D-08 EMaxC= 1.00D-01 BMatC= 1.23D-13 BMatP= 6.27D-12
 IDIUse=1 WtCom= 1.00D+00 WtEn= 0.00D+00
 Coeff-Com: -0.237D-06 0.714D-06-0.188D-05-0.436D-05-0.319D-04-0.342D-04
 Coeff-Com: -0.336D-03-0.111D-02 0.258D-03 0.396D-01 0.140D+00 0.822D+00
 Coeff:     -0.237D-06 0.714D-06-0.188D-05-0.436D-05-0.319D-04-0.342D-04
 Coeff:     -0.336D-03-0.111D-02 0.258D-03 0.396D-01 0.140D+00 0.822D+00
 Gap=     0.248 Goal=   None    Shift=    0.000
 RMSDP=1.23D-08 MaxDP=6.02D-07 DE=-7.73D-12 OVMax= 1.19D-07

 Cycle  13  Pass 1  IDiag  1:
 E= -616.891640814732     Delta-E=        0.000000000000 Rises=F Damp=F
 DIIS: error= 3.88D-09 at cycle  13 NSaved=  13.
 NSaved=13 IEnMin=12 EnMin= -616.891640814732     IErMin=13 ErrMin= 3.88D-09
 ErrMax= 3.88D-09 EMaxC= 1.00D-01 BMatC= 5.20D-15 BMatP= 1.23D-13
 IDIUse=1 WtCom= 1.00D+00 WtEn= 0.00D+00
 Coeff-Com: -0.137D-06 0.301D-06 0.107D-05 0.816D-06-0.227D-06 0.600D-05
 Coeff-Com: -0.954D-04-0.775D-03-0.180D-02 0.226D-02 0.234D-01 0.244D+00
 Coeff-Com:  0.733D+00
 Coeff:     -0.137D-06 0.301D-06 0.107D-05 0.816D-06-0.227D-06 0.600D-05
 Coeff:     -0.954D-04-0.775D-03-0.180D-02 0.226D-02 0.234D-01 0.244D+00
 Coeff:      0.733D+00
 Gap=     0.248 Goal=   None    Shift=    0.000
 RMSDP=2.89D-09 MaxDP=1.11D-07 DE= 2.27D-13 OVMax= 1.94D-08

 Cycle  14  Pass 1  IDiag  1:
 E= -616.891640814731     Delta-E=        0.000000000001 Rises=F Damp=F
 DIIS: error= 9.20D-10 at cycle  14 NSaved=  14.
 NSaved=14 IEnMin=12 EnMin= -616.891640814732     IErMin=14 ErrMin= 9.20D-10
 ErrMax= 9.20D-10 EMaxC= 1.00D-01 BMatC= 2.05D-16 BMatP= 5.20D-15
 IDIUse=1 WtCom= 1.00D+00 WtEn= 0.00D+00
 Coeff-Com: -0.104D-07 0.219D-07 0.316D-06 0.379D-06 0.105D-05 0.274D-05
 Coeff-Com: -0.640D-05-0.106D-03-0.435D-03-0.173D-02-0.251D-02 0.126D-01
 Coeff-Com:  0.180D+00 0.812D+00
 Coeff:     -0.104D-07 0.219D-07 0.316D-06 0.379D-06 0.105D-05 0.274D-05
 Coeff:     -0.640D-05-0.106D-03-0.435D-03-0.173D-02-0.251D-02 0.126D-01
 Coeff:      0.180D+00 0.812D+00
 Gap=     0.248 Goal=   None    Shift=    0.000
 RMSDP=6.62D-10 MaxDP=2.51D-08 DE= 6.82D-13 OVMax= 4.07D-09

 Cycle  15  Pass 1  IDiag  1:
 E= -616.891640814730     Delta-E=        0.000000000001 Rises=F Damp=F
 DIIS: error= 1.65D-10 at cycle  15 NSaved=  15.
 NSaved=15 IEnMin=12 EnMin= -616.891640814732     IErMin=15 ErrMin= 1.65D-10
 ErrMax= 1.65D-10 EMaxC= 1.00D-01 BMatC= 3.77D-18 BMatP= 2.05D-16
 IDIUse=1 WtCom= 1.00D+00 WtEn= 0.00D+00
 Coeff-Com:  0.529D-09-0.979D-09 0.406D-07 0.736D-07 0.193D-06 0.385D-06
 Coeff-Com:  0.757D-06-0.161D-05-0.412D-04-0.345D-03-0.106D-02-0.319D-02
 Coeff-Com:  0.146D-01 0.144D+00 0.846D+00
 Coeff:      0.529D-09-0.979D-09 0.406D-07 0.736D-07 0.193D-06 0.385D-06
 Coeff:      0.757D-06-0.161D-05-0.412D-04-0.345D-03-0.106D-02-0.319D-02
 Coeff:      0.146D-01 0.144D+00 0.846D+00
 Gap=     0.248 Goal=   None    Shift=    0.000
 RMSDP=8.60D-11 MaxDP=3.12D-09 DE= 6.82D-13 OVMax= 7.43D-10

 Cycle  16  Pass 1  IDiag  1:
 E= -616.891640814727     Delta-E=        0.000000000003 Rises=F Damp=F
 DIIS: error= 3.98D-11 at cycle  16 NSaved=  16.
 NSaved=16 IEnMin=12 EnMin= -616.891640814732     IErMin=16 ErrMin= 3.98D-11
 ErrMax= 3.98D-11 EMaxC= 1.00D-01 BMatC= 1.91D-19 BMatP= 3.77D-18
 IDIUse=1 WtCom= 1.00D+00 WtEn= 0.00D+00
 Large coefficients: NSaved= 16 BigCof=    0.00 CofMax=   10.00 Det=-2.03D-18
 Inversion failed.  Reducing to 15 matrices.
 Coeff-Com: -0.150D-09 0.426D-08 0.127D-07 0.356D-07 0.807D-07 0.375D-06
 Coeff-Com:  0.153D-05 0.637D-06-0.269D-04-0.165D-03-0.912D-03-0.211D-02
 Coeff-Com:  0.451D-02 0.187D+00 0.812D+00
 Coeff:     -0.150D-09 0.426D-08 0.127D-07 0.356D-07 0.807D-07 0.375D-06
 Coeff:      0.153D-05 0.637D-06-0.269D-04-0.165D-03-0.912D-03-0.211D-02
 Coeff:      0.451D-02 0.187D+00 0.812D+00
 Gap=     0.248 Goal=   None    Shift=    0.000
 RMSDP=2.30D-11 MaxDP=7.26D-10 DE= 3.18D-12 OVMax= 1.69D-10

 Cycle  17  Pass 1  IDiag  1:
 E= -616.891640814729     Delta-E=       -0.000000000002 Rises=F Damp=F
 DIIS: error= 8.01D-12 at cycle  17 NSaved=  16.
 NSaved=16 IEnMin=11 EnMin= -616.891640814732     IErMin=16 ErrMin= 8.01D-12
 ErrMax= 8.01D-12 EMaxC= 1.00D-01 BMatC= 7.97D-21 BMatP= 1.91D-19
 IDIUse=1 WtCom= 1.00D+00 WtEn= 0.00D+00
 Large coefficients: NSaved= 16 BigCof=    0.00 CofMax=   10.00 Det=-9.67D-20
 Inversion failed.  Reducing to 15 matrices.
 Coeff-Com: -0.107D-08-0.655D-09-0.216D-08 0.317D-08 0.553D-07 0.449D-06
 Coeff-Com:  0.222D-05 0.936D-05 0.412D-05-0.913D-04-0.120D-02-0.562D-02
 Coeff-Com:  0.120D-01 0.210D+00 0.785D+00
 Coeff:     -0.107D-08-0.655D-09-0.216D-08 0.317D-08 0.553D-07 0.449D-06
 Coeff:      0.222D-05 0.936D-05 0.412D-05-0.913D-04-0.120D-02-0.562D-02
 Coeff:      0.120D-01 0.210D+00 0.785D+00
 Gap=     0.248 Goal=   None    Shift=    0.000
 RMSDP=1.15D-11 MaxDP=3.85D-10 DE=-1.82D-12 OVMax= 2.76D-11

 Cycle  18  Pass 1  IDiag  1:
 E= -616.891640814728     Delta-E=        0.000000000001 Rises=F Damp=F
 DIIS: error= 3.06D-12 at cycle  18 NSaved=  16.
 NSaved=16 IEnMin=10 EnMin= -616.891640814732     IErMin=16 ErrMin= 3.06D-12
 ErrMax= 3.06D-12 EMaxC= 1.00D-01 BMatC= 4.38D-22 BMatP= 7.97D-21
 IDIUse=1 WtCom= 1.00D+00 WtEn= 0.00D+00
 Large coefficients: NSaved= 16 BigCof=    0.00 CofMax=   10.00 Det=-3.61D-21
 Inversion failed.  Reducing to 15 matrices.
 Coeff-Com:  0.110D-09 0.107D-08 0.281D-08 0.161D-07 0.586D-07 0.256D-06
 Coeff-Com:  0.699D-06-0.132D-05-0.227D-04-0.164D-03-0.905D-03 0.102D-02
 Coeff-Com:  0.349D-01 0.193D+00 0.772D+00
 Coeff:      0.110D-09 0.107D-08 0.281D-08 0.161D-07 0.586D-07 0.256D-06
 Coeff:      0.699D-06-0.132D-05-0.227D-04-0.164D-03-0.905D-03 0.102D-02
 Coeff:      0.349D-01 0.193D+00 0.772D+00
 Gap=     0.248 Goal=   None    Shift=    0.000
 RMSDP=1.63D-11 MaxDP=5.69D-10 DE= 9.09D-13 OVMax= 7.64D-12

 Cycle  19  Pass 1  IDiag  1:
 E= -616.891640814729     Delta-E=       -0.000000000001 Rises=F Damp=F
 DIIS: error= 1.78D-12 at cycle  19 NSaved=  16.
 NSaved=16 IEnMin= 9 EnMin= -616.891640814732     IErMin=16 ErrMin= 1.78D-12
 ErrMax= 1.78D-12 EMaxC= 1.00D-01 BMatC= 1.86D-22 BMatP= 4.38D-22
 IDIUse=1 WtCom= 1.00D+00 WtEn= 0.00D+00
 Large coefficients: NSaved= 16 BigCof=    0.00 CofMax=   10.00 Det=-6.44D-22
 Inversion failed.  Reducing to 15 matrices.
 Coeff-Com:  0.210D-09 0.258D-09 0.186D-08 0.684D-08 0.696D-07 0.434D-06
 Coeff-Com:  0.688D-06-0.187D-05-0.325D-04-0.307D-03-0.849D-03 0.497D-02
 Coeff-Com:  0.557D-01 0.343D+00 0.598D+00
 Coeff:      0.210D-09 0.258D-09 0.186D-08 0.684D-08 0.696D-07 0.434D-06
 Coeff:      0.688D-06-0.187D-05-0.325D-04-0.307D-03-0.849D-03 0.497D-02
 Coeff:      0.557D-01 0.343D+00 0.598D+00
 Gap=     0.248 Goal=   None    Shift=    0.000
 RMSDP=9.26D-12 MaxDP=4.35D-10 DE=-6.82D-13 OVMax= 3.43D-12

 SCF Done:  E(RB3LYP) =  -616.891640815     A.U. after   19 cycles
             Convg  =    0.9263D-11             -V/T =  2.0029
 KE= 6.151191940101D+02 PE=-1.880812217519D+03 EE= 4.367947170177D+02
 Leave Link  502 at Wed Jul 10 16:54:48 2013, MaxMem=  131072000 cpu:     268.1
 (Enter /cerebro/home/software/apps/g09/l801.exe)
 Range of M.O.s used for correlation:     1   167
 NBasis=   167 NAE=    24 NBE=    24 NFC=     0 NFV=     0
 NROrb=    167 NOA=    24 NOB=    24 NVA=   143 NVB=   143

 **** Warning!!: The largest alpha MO coefficient is  0.58914810D+02

 Leave Link  801 at Wed Jul 10 16:54:48 2013, MaxMem=  131072000 cpu:       0.0
 (Enter /cerebro/home/software/apps/g09/l1002.exe)
 Minotr:  Closed shell wavefunction.
          Direct CPHF calculation.
          Differentiating once with respect to magnetic field using GIAOs.
          Electric field/nuclear overlap derivatives assumed to be zero.
          Requested convergence is 1.0D-11 RMS, and 1.0D-10 maximum.
          NewPWx=F KeepS1=T KeepF1=T KeepIn=T MapXYZ=F SortEE=F KeepMc=T.
          MDV=     131071900 using IRadAn=       4.
 Generate precomputed XC quadrature information.
          Solving linear equations separately, MaxMat=       0.
          Doing perturbations at frequencies    0.071980    0.077357    0.104503    0.128347
 FoFCou: FMM=F IPFlag=           0 FMFlag=           0 FMFlg1=           0
         NFxFlg=           0 DoJE=F BraDBF=F KetDBF=T FulRan=T
         Omega=  0.000000  0.000000  1.000000  0.000000  0.000000 ICntrl=    6100 IOpCl=  0
         NMat0=    1 NMatS0=    1 NMatT0=    0 NMatD0=    1 NMtDS0=    0 NMtDT0=    0
         I1Cent=           7 NGrid=          12.
 Symmetry not used in FoFCou.
 Integrals replicated using symmetry in FoFDir.
 MinBra= 0 MaxBra= 2 Meth= 1.
 IRaf=       0 NMat=  24 IRICut=      30 DoRegI=T DoRafI=T ISym2E= 2 JSym2E=2.
 CalDSu exits because no D1Ps are significant.
          There are    12 degrees of freedom in the 1st order CPHF.  IDoFFX=0.
 LinEq1:  Iter=  0 NonCon=    12 RMS=5.68D-02 Max=1.48D+00
 AX will form    12 AO Fock derivatives at one time.
 LinEq1:  Iter=  1 NonCon=    12 RMS=1.62D-02 Max=7.76D-01
 LinEq1:  Iter=  2 NonCon=    12 RMS=1.25D-02 Max=6.84D-01
 LinEq1:  Iter=  3 NonCon=    12 RMS=6.44D-03 Max=1.65D-01
 LinEq1:  Iter=  4 NonCon=    12 RMS=4.07D-03 Max=6.88D-02
 LinEq1:  Iter=  5 NonCon=    12 RMS=1.66D-03 Max=4.79D-02
 LinEq1:  Iter=  6 NonCon=    12 RMS=9.00D-04 Max=1.63D-02
 LinEq1:  Iter=  7 NonCon=    12 RMS=3.26D-04 Max=5.74D-03
 LinEq1:  Iter=  8 NonCon=    12 RMS=1.43D-04 Max=2.96D-03
 LinEq1:  Iter=  9 NonCon=    12 RMS=5.19D-05 Max=8.89D-04
 LinEq1:  Iter= 10 NonCon=    12 RMS=2.04D-05 Max=3.02D-04
 LinEq1:  Iter= 11 NonCon=    12 RMS=7.21D-06 Max=1.54D-04
 LinEq1:  Iter= 12 NonCon=    12 RMS=3.39D-06 Max=4.25D-05
 LinEq1:  Iter= 13 NonCon=    12 RMS=1.27D-06 Max=2.33D-05
 LinEq1:  Iter= 14 NonCon=    12 RMS=3.81D-07 Max=6.67D-06
 LinEq1:  Iter= 15 NonCon=    12 RMS=9.81D-08 Max=2.33D-06
 LinEq1:  Iter= 16 NonCon=    12 RMS=3.24D-08 Max=6.86D-07
 LinEq1:  Iter= 17 NonCon=    12 RMS=8.17D-09 Max=1.96D-07
 LinEq1:  Iter= 18 NonCon=    12 RMS=2.07D-09 Max=5.23D-08
 LinEq1:  Iter= 19 NonCon=    12 RMS=6.01D-10 Max=1.72D-08
 LinEq1:  Iter= 20 NonCon=    12 RMS=1.66D-10 Max=3.30D-09
 LinEq1:  Iter= 21 NonCon=     8 RMS=6.01D-11 Max=1.31D-09
 LinEq1:  Iter= 22 NonCon=     3 RMS=1.28D-11 Max=2.09D-10
 LinEq1:  Iter= 23 NonCon=     0 RMS=5.85D-12 Max=9.50D-11
 Linear equations converged to 1.000D-11 1.000D-10 after    23 iterations.
 FullF1:  Do perturbations    1 to    12.
 Dipole-magnetic dipole polarizability for W=    0.071980:
                 1             2             3 
      1   0.487396D+01 -0.577297D+00 -0.575387D+01
      2  -0.816953D+01 -0.508209D+01 -0.198966D+02
      3   0.246843D+02  0.862300D+01  0.153689D+01
 w=    0.071980 a.u., Optical Rotation Beta=     -0.4429 au.
 Molar Mass =     90.5523 grams/mole, [Alpha] ( 6330.0 A) =     -163.86 deg.
 Dipole-magnetic dipole polarizability for W=    0.077357:
                 1             2             3 
      1   0.494548D+01 -0.562835D+00 -0.573054D+01
      2  -0.830454D+01 -0.513043D+01 -0.199717D+02
      3   0.248916D+02  0.870166D+01  0.156109D+01
 w=    0.077357 a.u., Optical Rotation Beta=     -0.4587 au.
 Molar Mass =     90.5523 grams/mole, [Alpha] ( 5890.0 A) =     -196.00 deg.
 Dipole-magnetic dipole polarizability for W=    0.104503:
                 1             2             3 
      1   0.544168D+01 -0.456427D+00 -0.556608D+01
      2  -0.922218D+01 -0.544814D+01 -0.204559D+02
      3   0.263257D+02  0.925027D+01  0.173049D+01
 w=    0.104503 a.u., Optical Rotation Beta=     -0.5747 au.
 Molar Mass =     90.5523 grams/mole, [Alpha] ( 4360.0 A) =     -448.12 deg.
 Dipole-magnetic dipole polarizability for W=    0.128347:
                 1             2             3 
      1   0.615182D+01 -0.289147D+00 -0.532826D+01
      2  -0.104737D+02 -0.585328D+01 -0.210534D+02
      3   0.283741D+02  0.100435D+02  0.197683D+01
 w=    0.128347 a.u., Optical Rotation Beta=     -0.7585 au.
 Molar Mass =     90.5523 grams/mole, [Alpha] ( 3550.0 A) =     -892.12 deg.
 End of Minotr Frequency-dependent properties on file   721 Mask=       2 NFrqRd=     4 NDeriv=     1 LenFil=      42:
 Frequencies=    0.071980    0.077357    0.104503    0.128347
 Property number 2 -- FD Optical Rotation Tensor frequency  1    0.071980:
                 1             2             3 
      1   0.487396D+01 -0.577297D+00 -0.575387D+01
      2  -0.816953D+01 -0.508209D+01 -0.198966D+02
      3   0.246843D+02  0.862300D+01  0.153689D+01
 Property number 2 -- FD Optical Rotation Tensor frequency  2    0.077357:
                 1             2             3 
      1   0.494548D+01 -0.562835D+00 -0.573054D+01
      2  -0.830454D+01 -0.513043D+01 -0.199717D+02
      3   0.248916D+02  0.870166D+01  0.156109D+01
 Property number 2 -- FD Optical Rotation Tensor frequency  3    0.104503:
                 1             2             3 
      1   0.544168D+01 -0.456427D+00 -0.556608D+01
      2  -0.922218D+01 -0.544814D+01 -0.204559D+02
      3   0.263257D+02  0.925027D+01  0.173049D+01
 Property number 2 -- FD Optical Rotation Tensor frequency  4    0.128347:
                 1             2             3 
      1   0.615182D+01 -0.289147D+00 -0.532826D+01
      2  -0.104737D+02 -0.585328D+01 -0.210534D+02
      3   0.283741D+02  0.100435D+02  0.197683D+01
 End of Minotr Frequency-dependent properties file   722 does not exist.
 Leave Link 1002 at Wed Jul 10 17:28:42 2013, MaxMem=  131072000 cpu:    2024.0
 (Enter /cerebro/home/software/apps/g09/l601.exe)
 Copying SCF densities to generalized density rwf, IOpCl= 0 IROHF=0.

 **********************************************************************

            Population analysis using the SCF density.

 **********************************************************************

 Orbital symmetries:
       Occupied  (A) (A) (A) (A) (A) (A) (A) (A) (A) (A) (A) (A)
                 (A) (A) (A) (A) (A) (A) (A) (A) (A) (A) (A) (A)
       Virtual   (A) (A) (A) (A) (A) (A) (A) (A) (A) (A) (A) (A)
                 (A) (A) (A) (A) (A) (A) (A) (A) (A) (A) (A) (A)
                 (A) (A) (A) (A) (A) (A) (A) (A) (A) (A) (A) (A)
                 (A) (A) (A) (A) (A) (A) (A) (A) (A) (A) (A) (A)
                 (A) (A) (A) (A) (A) (A) (A) (A) (A) (A) (A) (A)
                 (A) (A) (A) (A) (A) (A) (A) (A) (A) (A) (A) (A)
                 (A) (A) (A) (A) (A) (A) (A) (A) (A) (A) (A) (A)
                 (A) (A) (A) (A) (A) (A) (A) (A) (A) (A) (A) (A)
                 (A) (A) (A) (A) (A) (A) (A) (A) (A) (A) (A) (A)
                 (A) (A) (A) (A) (A) (A) (A) (A) (A) (A) (A) (A)
                 (A) (A) (A) (A) (A) (A) (A) (A) (A) (A) (A) (A)
                 (A) (A) (A) (A) (A) (A) (A) (A) (A) (A) (A)
 The electronic state is 1-A.
 Alpha  occ. eigenvalues -- -101.53401 -10.24226 -10.19321 -10.18416 -10.17965
 Alpha  occ. eigenvalues --   -9.44845  -7.21277  -7.20338  -7.20323  -0.86887
 Alpha  occ. eigenvalues --   -0.78699  -0.74298  -0.64288  -0.58344  -0.48462
 Alpha  occ. eigenvalues --   -0.47896  -0.44450  -0.41554  -0.40742  -0.37871
 Alpha  occ. eigenvalues --   -0.36575  -0.30642  -0.29894  -0.28036
 Alpha virt. eigenvalues --   -0.03237  -0.00767   0.00631   0.00862   0.02196
 Alpha virt. eigenvalues --    0.02851   0.03867   0.04150   0.06462   0.06496
 Alpha virt. eigenvalues --    0.07280   0.08395   0.08782   0.09836   0.11114
 Alpha virt. eigenvalues --    0.11612   0.11980   0.12246   0.13004   0.13045
 Alpha virt. eigenvalues --    0.13494   0.14284   0.15017   0.15698   0.16117
 Alpha virt. eigenvalues --    0.16377   0.17295   0.18878   0.19197   0.21895
 Alpha virt. eigenvalues --    0.21955   0.22757   0.24733   0.26050   0.27122
 Alpha virt. eigenvalues --    0.29648   0.34646   0.35679   0.39046   0.42580
 Alpha virt. eigenvalues --    0.42960   0.44742   0.45558   0.47880   0.48780
 Alpha virt. eigenvalues --    0.49574   0.52506   0.52752   0.56663   0.58816
 Alpha virt. eigenvalues --    0.59806   0.62118   0.63463   0.64928   0.65560
 Alpha virt. eigenvalues --    0.66796   0.69480   0.72702   0.73827   0.74464
 Alpha virt. eigenvalues --    0.78894   0.81990   0.83197   0.86421   0.89228
 Alpha virt. eigenvalues --    0.90419   0.94381   0.96097   1.00382   1.03149
 Alpha virt. eigenvalues --    1.06558   1.08424   1.12645   1.17669   1.19856
 Alpha virt. eigenvalues --    1.29373   1.39022   1.42940   1.45339   1.47098
 Alpha virt. eigenvalues --    1.50586   1.54237   1.57211   1.58061   1.59936
 Alpha virt. eigenvalues --    1.62930   1.67048   1.69271   1.70560   1.72940
 Alpha virt. eigenvalues --    1.77995   1.79245   1.87862   1.88602   1.94786
 Alpha virt. eigenvalues --    1.99724   2.02533   2.07093   2.12155   2.18317
 Alpha virt. eigenvalues --    2.19548   2.20905   2.26476   2.30204   2.31522
 Alpha virt. eigenvalues --    2.35623   2.38974   2.44025   2.48044   2.49608
 Alpha virt. eigenvalues --    2.52573   2.55416   2.58341   2.58891   2.63501
 Alpha virt. eigenvalues --    2.66072   2.72609   2.74188   2.75943   2.80392
 Alpha virt. eigenvalues --    2.85199   2.85891   2.93119   3.08083   3.10365
 Alpha virt. eigenvalues --    3.18642   3.40750   3.51138   3.71702   3.76737
 Alpha virt. eigenvalues --    3.84262   3.97363   4.16894   4.30002   9.75616
 Alpha virt. eigenvalues --   23.73797  23.83228  23.96858  24.25585  25.93159
 Alpha virt. eigenvalues --   25.97461  26.44683 215.74601
          Condensed to atoms (all electrons):
              1          2          3          4          5          6
     1  C    5.382724   0.147476   0.008586   0.100927  -0.004097   0.378995
     2  C    0.147476   5.396384   0.046162  -0.109998  -0.028269  -0.049615
     3  C    0.008586   0.046162   5.270981   0.442080  -0.038941   0.021879
     4  C    0.100927  -0.109998   0.442080   5.380057   0.386564  -0.011457
     5  H   -0.004097  -0.028269  -0.038941   0.386564   0.567161   0.000871
     6  H    0.378995  -0.049615   0.021879  -0.011457   0.000871   0.547177
     7  H    0.002442   0.021630  -0.012056   0.386494  -0.039409   0.000228
     8  H   -0.018254  -0.022377   0.338087  -0.036194   0.016263  -0.001852
     9  H   -0.050856   0.475435  -0.132024   0.003967   0.011613  -0.004629
    10  H    0.390245  -0.015545  -0.040945  -0.004025   0.002322  -0.018773
    11  H    0.373765  -0.051320   0.017278   0.005980  -0.000915  -0.028466
    12  Cl  -0.048146   0.019746  -0.000451   0.066962   0.000888   0.012817
              7          8          9         10         11         12
     1  C    0.002442  -0.018254  -0.050856   0.390245   0.373765  -0.048146
     2  C    0.021630  -0.022377   0.475435  -0.015545  -0.051320   0.019746
     3  C   -0.012056   0.338087  -0.132024  -0.040945   0.017278  -0.000451
     4  C    0.386494  -0.036194   0.003967  -0.004025   0.005980   0.066962
     5  H   -0.039409   0.016263   0.011613   0.002322  -0.000915   0.000888
     6  H    0.000228  -0.001852  -0.004629  -0.018773  -0.028466   0.012817
     7  H    0.536992  -0.020959  -0.002850  -0.000816   0.000197  -0.004463
     8  H   -0.020959   0.551326   0.007653   0.004840  -0.002814   0.021094
     9  H   -0.002850   0.007653   0.514899   0.009697  -0.013679  -0.046948
    10  H   -0.000816   0.004840   0.009697   0.537147  -0.033715   0.011515
    11  H    0.000197  -0.002814  -0.013679  -0.033715   0.587052   0.018016
    12  Cl  -0.004463   0.021094  -0.046948   0.011515   0.018016  17.012386
 Mulliken atomic charges:
              1
     1  C   -0.663807
     2  C    0.170291
     3  C    0.079363
     4  C   -0.611356
     5  H    0.125949
     6  H    0.152823
     7  H    0.132570
     8  H    0.163187
     9  H    0.227723
    10  H    0.158053
    11  H    0.128621
    12  Cl  -0.063415
 Sum of Mulliken atomic charges =   0.00000
 Mulliken charges with hydrogens summed into heavy atoms:
              1
     1  C   -0.224310
     2  C    0.398013
     3  C    0.242550
     4  C   -0.352838
    12  Cl  -0.063415
 Sum of Mulliken charges with hydrogens summed into heavy atoms =   0.00000
 Electronic spatial extent (au):  <R**2>=            628.1569
 Charge=              0.0000 electrons
 Dipole moment (field-independent basis, Debye):
    X=             -1.6890    Y=              1.5656    Z=             -0.3217  Tot=              2.3253
 Quadrupole moment (field-independent basis, Debye-Ang):
   XX=            -39.3810   YY=            -40.0675   ZZ=            -37.0844
   XY=              2.3866   XZ=              0.0718   YZ=             -0.1559
 Traceless Quadrupole moment (field-independent basis, Debye-Ang):
   XX=             -0.5367   YY=             -1.2232   ZZ=              1.7599
   XY=              2.3866   XZ=              0.0718   YZ=             -0.1559
 Octapole moment (field-independent basis, Debye-Ang**2):
  XXX=             -1.6915  YYY=              1.4516  ZZZ=             -0.4436  XYY=              4.4758
  XXY=             -4.6255  XXZ=              0.3558  XZZ=             -0.9024  YZZ=             -0.3182
  YYZ=             -0.0948  XYZ=             -0.2846
 Hexadecapole moment (field-independent basis, Debye-Ang**3):
 XXXX=           -489.2388 YYYY=           -278.8369 ZZZZ=            -79.4971 XXXY=              9.8474
 XXXZ=             -2.5874 YYYX=             -8.1365 YYYZ=             -1.3635 ZZZX=              1.0978
 ZZZY=              1.4658 XXYY=           -129.5881 XXZZ=            -95.6856 YYZZ=            -61.2624
 XXYZ=             -3.1093 YYXZ=              0.9623 ZZXY=              1.6889
 N-N= 2.120066656764D+02 E-N=-1.880812217519D+03  KE= 6.151191940101D+02
 No NMR shielding tensors so no spin-rotation constants.
 Leave Link  601 at Wed Jul 10 17:28:42 2013, MaxMem=  131072000 cpu:       0.2
 (Enter /cerebro/home/software/apps/g09/l9999.exe)
 AllDun Frequency-dependent properties on file 20721 Mask=       2 NFrqRd=     4 NDeriv=     1 LenFil=      42:
 Frequencies=    0.071980    0.077357    0.104503    0.128347
 Property number 2 -- FD Optical Rotation Tensor frequency  1    0.071980:
                 1             2             3 
      1   0.486257D+01 -0.590218D+00 -0.577971D+01
      2  -0.818245D+01 -0.507070D+01 -0.198891D+02
      3   0.246955D+02  0.859092D+01  0.153689D+01
 Property number 2 -- FD Optical Rotation Tensor frequency  2    0.077357:
                 1             2             3 
      1   0.493394D+01 -0.575912D+00 -0.575649D+01
      2  -0.831761D+01 -0.511889D+01 -0.199642D+02
      3   0.249028D+02  0.866931D+01  0.156109D+01
 Property number 2 -- FD Optical Rotation Tensor frequency  3    0.104503:
                 1             2             3 
      1   0.542909D+01 -0.470560D+00 -0.559265D+01
      2  -0.923631D+01 -0.543555D+01 -0.204486D+02
      3   0.263377D+02  0.921605D+01  0.173049D+01
 Property number 2 -- FD Optical Rotation Tensor frequency  4    0.128347:
                 1             2             3 
      1   0.613782D+01 -0.304727D+00 -0.535561D+01
      2  -0.104893D+02 -0.583928D+01 -0.210465D+02
      3   0.283871D+02  0.100066D+02  0.197683D+01
 1\1\GINC-COMPUTE-0-1\SP\RB3LYP\6-311++G(d,p)\C4H7Cl1\CRAWDAD\10-Jul-20
 13\0\\#P B3LYP/6-311++G** scf(conver=11) int=ultrafine polar=optrot cp
 hf(rdfreq,conver=11)\\(R)-3-chloro-1-butene tau=120\\0,1\C,0,0.4716822
 5,1.75265325,0.04356886\C,0,0.0054355,0.34963626,-0.32859437\C,0,-1.20
 573677,-0.09678812,0.42731201\C,0,-2.33245857,-0.49789965,-0.15579572\
 H,0,-2.42818534,-0.55163597,-1.23824593\H,0,1.36922695,2.01976328,-0.5
 0495923\H,0,-3.1995535,-0.78936998,0.42823153\H,0,-1.12894341,-0.06139
 997,1.50539954\H,0,-0.14862387,0.26253187,-1.34760071\H,0,0.66839557,1
 .82879071,1.0694161\H,0,-0.34326419,2.49102033,-0.22035009\Cl,0,1.3860
 4078,-0.83735435,0.02288764\\Version=EM64L-G09RevA.02\State=1-A\HF=-61
 6.8916408\RMSD=9.263e-12\Dipole=-0.6637011,0.616804,-0.1265536\Quadrup
 ole=-0.3944389,-0.9140141,1.3084531,1.7737134,0.0532482,-0.1159767\PG=
 C01 [X(C4H7Cl1)]\\@


 IF I HAVE SEEN FARTHER, IT IS BY STANDING ON THE
 SHOULDERS OF GIANTS. -- SIR ISAAC NEWTON
 Job cpu time:  0 days  0 hours 38 minutes 21.4 seconds.
 File lengths (MBytes):  RWF=    119 Int=      0 D2E=      0 Chk=      2 Scr=      1
 Normal termination of Gaussian 09 at Wed Jul 10 17:28:43 2013.
