(R)-3-chloro-1-butene tau=120                                           
SP        RB3LYP                                                      6-311++G(d,p)       
Number of atoms                            I               12
Info1-9                                    I   N=           9
          26          26           0           0           0         110
           1          18        -502
Full Title                                 C   N=           3
(R)-3-chloro-1-butene tau=120       
Route                                      C   N=           7
#P B3LYP/6-311++G** scf(conver=11) int=ultrafine polar=optro
t cphf(rdfreq,conver=11)
Charge                                     I                0
Multiplicity                               I                1
Number of electrons                        I               48
Number of alpha electrons                  I               24
Number of beta electrons                   I               24
Number of basis functions                  I              167
Number of independent functions            I              167
Number of point charges in /Mol/           I                0
Number of translation vectors              I                0
Atomic numbers                             I   N=          12
           6           6           6           6           1           1
           1           1           1           1           1          17
Nuclear charges                            R   N=          12
  6.00000000E+00  6.00000000E+00  6.00000000E+00  6.00000000E+00  1.00000000E+00
  1.00000000E+00  1.00000000E+00  1.00000000E+00  1.00000000E+00  1.00000000E+00
  1.00000000E+00  1.70000000E+01
Current cartesian coordinates              R   N=          36
  8.87626259E-01  3.31278575E+00  8.23361357E-02  9.99317668E-03  6.60325336E-01
 -6.20950446E-01 -2.27769267E+00 -1.86267572E-01  8.07505595E-01 -4.40590165E+00
 -9.47024325E-01 -2.94408321E-01 -4.58666694E+00 -1.04880621E+00 -2.33994277E+00
  2.58308266E+00  3.81975388E+00 -9.54231731E-01 -6.04375657E+00 -1.49995195E+00
  8.09243236E-01 -2.13266126E+00 -1.19205166E-01  2.84479577E+00 -2.80922727E-01
  4.95343770E-01 -2.54659336E+00  1.25917331E+00  3.45714757E+00  2.02090647E+00
 -6.54210946E-01  4.70609519E+00 -4.16398401E-01  2.62187128E+00 -1.57937013E+00
  4.32542938E-02
Number of symbols in /Mol/                 I                0
Force Field                                I                0
Atom Types                                 C   N=          12
                                                            
                                                            
                        
Int Atom Types                             I   N=          12
           0           0           0           0           0           0
           0           0           0           0           0           0
MM charges                                 R   N=          12
  0.00000000E+00  0.00000000E+00  0.00000000E+00  0.00000000E+00  0.00000000E+00
  0.00000000E+00  0.00000000E+00  0.00000000E+00  0.00000000E+00  0.00000000E+00
  0.00000000E+00  0.00000000E+00
Integer atomic weights                     I   N=          12
          12          12          12          12           1           1
           1           1           1           1           1          35
Real atomic weights                        R   N=          12
  1.20000000E+01  1.20000000E+01  1.20000000E+01  1.20000000E+01  1.00782504E+00
  1.00782504E+00  1.00782504E+00  1.00782504E+00  1.00782504E+00  1.00782504E+00
  1.00782504E+00  3.49688527E+01
Atom fragment info                         I   N=          12
           0           0           0           0           0           0
           0           0           0           0           0           0
Atom residue num                           I   N=          12
           0           0           0           0           0           0
           0           0           0           0           0           0
Nuclear spins                              I   N=          12
           0           0           0           0           1           1
           1           1           1           1           1           3
Nuclear ZEff                               R   N=          12
 -3.60000000E+00 -3.60000000E+00 -3.60000000E+00 -3.60000000E+00 -1.00000000E+00
 -1.00000000E+00 -1.00000000E+00 -1.00000000E+00 -1.00000000E+00 -1.00000000E+00
 -1.00000000E+00 -1.42400000E+01
Nuclear ZNuc                               R   N=          12
  6.00000000E+00  6.00000000E+00  6.00000000E+00  6.00000000E+00  1.00000000E+00
  1.00000000E+00  1.00000000E+00  1.00000000E+00  1.00000000E+00  1.00000000E+00
  1.00000000E+00  1.70000000E+01
Nuclear QMom                               R   N=          12
  0.00000000E+00  0.00000000E+00  0.00000000E+00  0.00000000E+00  0.00000000E+00
  0.00000000E+00  0.00000000E+00  0.00000000E+00  0.00000000E+00  0.00000000E+00
  0.00000000E+00 -8.16500000E+00
Nuclear GFac                               R   N=          12
  0.00000000E+00  0.00000000E+00  0.00000000E+00  0.00000000E+00  2.79284600E+00
  2.79284600E+00  2.79284600E+00  2.79284600E+00  2.79284600E+00  2.79284600E+00
  2.79284600E+00  8.21874000E-01
MicOpt                                     I   N=          12
          -1          -1          -1          -1          -1          -1
          -1          -1          -1          -1          -1          -1
Number of residues                         I                0
Number of secondary structures             I                0
SymInf integers                            I   N=          26
           1           1           1           1           1           0
           0           0           0           0           0           0
           0           0           0           0           0           0
           0           0           0           0           0           0
           0           0
RotTr to input orientation                 R   N=          12
  9.99999156E-01 -1.29929426E-03  0.00000000E+00  1.29929426E-03  9.99999156E-01
  0.00000000E+00  0.00000000E+00  0.00000000E+00  1.00000000E+00 -5.79518770E-04
  4.04982483E-04 -2.92238273E-06
Number of contracted shells                I               72
Number of primitive shells                 I              126
Pure/Cartesian d shells                    I                0
Pure/Cartesian f shells                    I                0
Highest angular momentum                   I                2
Largest degree of contraction              I                6
Shell types                                I   N=          72
           0          -1          -1          -1          -1          -2
           0          -1          -1          -1          -1          -2
           0          -1          -1          -1          -1          -2
           0          -1          -1          -1          -1          -2
           0           0           0           0           1           0
           0           0           0           1           0           0
           0           0           1           0           0           0
           0           1           0           0           0           0
           1           0           0           0           0           1
           0           0           0           0           1           0
           0           0           0           0           0          -1
           1           1           1           1           1          -2
Number of primitives per shell             I   N=          72
           6           3           1           1           1           1
           6           3           1           1           1           1
           6           3           1           1           1           1
           6           3           1           1           1           1
           3           1           1           1           1           3
           1           1           1           1           3           1
           1           1           1           3           1           1
           1           1           3           1           1           1
           1           3           1           1           1           1
           3           1           1           1           1           6
           3           1           1           1           1           1
           5           2           1           1           1           1
Shell to atom map                          I   N=          72
           1           1           1           1           1           1
           2           2           2           2           2           2
           3           3           3           3           3           3
           4           4           4           4           4           4
           5           5           5           5           5           6
           6           6           6           6           7           7
           7           7           7           8           8           8
           8           8           9           9           9           9
           9          10          10          10          10          10
          11          11          11          11          11          12
          12          12          12          12          12          12
          12          12          12          12          12          12
Primitive exponents                        R   N=         126
  4.56324000E+03  6.82024000E+02  1.54973000E+02  4.44553000E+01  1.30290000E+01
  1.82773000E+00  2.09642000E+01  4.80331000E+00  1.45933000E+00  4.83456000E-01
  1.45585000E-01  4.38000000E-02  6.26000000E-01  4.56324000E+03  6.82024000E+02
  1.54973000E+02  4.44553000E+01  1.30290000E+01  1.82773000E+00  2.09642000E+01
  4.80331000E+00  1.45933000E+00  4.83456000E-01  1.45585000E-01  4.38000000E-02
  6.26000000E-01  4.56324000E+03  6.82024000E+02  1.54973000E+02  4.44553000E+01
  1.30290000E+01  1.82773000E+00  2.09642000E+01  4.80331000E+00  1.45933000E+00
  4.83456000E-01  1.45585000E-01  4.38000000E-02  6.26000000E-01  4.56324000E+03
  6.82024000E+02  1.54973000E+02  4.44553000E+01  1.30290000E+01  1.82773000E+00
  2.09642000E+01  4.80331000E+00  1.45933000E+00  4.83456000E-01  1.45585000E-01
  4.38000000E-02  6.26000000E-01  3.38650000E+01  5.09479000E+00  1.15879000E+00
  3.25840000E-01  1.02741000E-01  3.60000000E-02  7.50000000E-01  3.38650000E+01
  5.09479000E+00  1.15879000E+00  3.25840000E-01  1.02741000E-01  3.60000000E-02
  7.50000000E-01  3.38650000E+01  5.09479000E+00  1.15879000E+00  3.25840000E-01
  1.02741000E-01  3.60000000E-02  7.50000000E-01  3.38650000E+01  5.09479000E+00
  1.15879000E+00  3.25840000E-01  1.02741000E-01  3.60000000E-02  7.50000000E-01
  3.38650000E+01  5.09479000E+00  1.15879000E+00  3.25840000E-01  1.02741000E-01
  3.60000000E-02  7.50000000E-01  3.38650000E+01  5.09479000E+00  1.15879000E+00
  3.25840000E-01  1.02741000E-01  3.60000000E-02  7.50000000E-01  3.38650000E+01
  5.09479000E+00  1.15879000E+00  3.25840000E-01  1.02741000E-01  3.60000000E-02
  7.50000000E-01  1.05819000E+05  1.58720000E+04  3.61965000E+03  1.03080000E+03
  3.39908000E+02  1.24538000E+02  1.24538000E+02  4.95135000E+01  2.08056000E+01
  6.58346000E+00  2.56468000E+00  5.59763000E-01  1.83273000E-01  4.83000000E-02
  5.89776000E+02  1.39849000E+02  4.51413000E+01  1.68733000E+01  2.77152000E+00
  6.74110000E+00  2.77152000E+00  1.02387000E+00  3.81368000E-01  1.09437000E-01
  7.50000000E-01
Contraction coefficients                   R   N=         126
  1.96665025E-03  1.52306019E-02  7.61269097E-02  2.60801033E-01  6.16462078E-01
  2.21006028E-01  1.14660081E-01  9.19999648E-01 -3.03068213E-03  1.00000000E+00
  1.00000000E+00  1.00000000E+00  1.00000000E+00  1.96665025E-03  1.52306019E-02
  7.61269097E-02  2.60801033E-01  6.16462078E-01  2.21006028E-01  1.14660081E-01
  9.19999648E-01 -3.03068213E-03  1.00000000E+00  1.00000000E+00  1.00000000E+00
  1.00000000E+00  1.96665025E-03  1.52306019E-02  7.61269097E-02  2.60801033E-01
  6.16462078E-01  2.21006028E-01  1.14660081E-01  9.19999648E-01 -3.03068213E-03
  1.00000000E+00  1.00000000E+00  1.00000000E+00  1.00000000E+00  1.96665025E-03
  1.52306019E-02  7.61269097E-02  2.60801033E-01  6.16462078E-01  2.21006028E-01
  1.14660081E-01  9.19999648E-01 -3.03068213E-03  1.00000000E+00  1.00000000E+00
  1.00000000E+00  1.00000000E+00  2.54938145E-02  1.90373109E-01  8.52161486E-01
  1.00000000E+00  1.00000000E+00  1.00000000E+00  1.00000000E+00  2.54938145E-02
  1.90373109E-01  8.52161486E-01  1.00000000E+00  1.00000000E+00  1.00000000E+00
  1.00000000E+00  2.54938145E-02  1.90373109E-01  8.52161486E-01  1.00000000E+00
  1.00000000E+00  1.00000000E+00  1.00000000E+00  2.54938145E-02  1.90373109E-01
  8.52161486E-01  1.00000000E+00  1.00000000E+00  1.00000000E+00  1.00000000E+00
  2.54938145E-02  1.90373109E-01  8.52161486E-01  1.00000000E+00  1.00000000E+00
  1.00000000E+00  1.00000000E+00  2.54938145E-02  1.90373109E-01  8.52161486E-01
  1.00000000E+00  1.00000000E+00  1.00000000E+00  1.00000000E+00  2.54938145E-02
  1.90373109E-01  8.52161486E-01  1.00000000E+00  1.00000000E+00  1.00000000E+00
  1.00000000E+00  7.38000247E-04  5.71800191E-03  2.94950099E-02  1.17286039E-01
  3.62949121E-01  5.84149195E-01  1.34176973E-01  6.24249876E-01  2.91755942E-01
  1.00000000E+00  1.00000000E+00  1.00000000E+00  1.00000000E+00  1.00000000E+00
  3.66556935E-03  2.83679194E-02  1.24756603E-01  3.39654631E-01  7.47585963E-01
 -1.57224381E+00  9.92388882E-01  1.00000000E+00  1.00000000E+00  1.00000000E+00
  1.00000000E+00
P(S=P) Contraction coefficients            R   N=         126
  0.00000000E+00  0.00000000E+00  0.00000000E+00  0.00000000E+00  0.00000000E+00
  0.00000000E+00  4.02486927E-02  2.37593957E-01  8.15853851E-01  1.00000000E+00
  1.00000000E+00  1.00000000E+00  0.00000000E+00  0.00000000E+00  0.00000000E+00
  0.00000000E+00  0.00000000E+00  0.00000000E+00  0.00000000E+00  4.02486927E-02
  2.37593957E-01  8.15853851E-01  1.00000000E+00  1.00000000E+00  1.00000000E+00
  0.00000000E+00  0.00000000E+00  0.00000000E+00  0.00000000E+00  0.00000000E+00
  0.00000000E+00  0.00000000E+00  4.02486927E-02  2.37593957E-01  8.15853851E-01
  1.00000000E+00  1.00000000E+00  1.00000000E+00  0.00000000E+00  0.00000000E+00
  0.00000000E+00  0.00000000E+00  0.00000000E+00  0.00000000E+00  0.00000000E+00
  4.02486927E-02  2.37593957E-01  8.15853851E-01  1.00000000E+00  1.00000000E+00
  1.00000000E+00  0.00000000E+00  0.00000000E+00  0.00000000E+00  0.00000000E+00
  0.00000000E+00  0.00000000E+00  0.00000000E+00  0.00000000E+00  0.00000000E+00
  0.00000000E+00  0.00000000E+00  0.00000000E+00  0.00000000E+00  0.00000000E+00
  0.00000000E+00  0.00000000E+00  0.00000000E+00  0.00000000E+00  0.00000000E+00
  0.00000000E+00  0.00000000E+00  0.00000000E+00  0.00000000E+00  0.00000000E+00
  0.00000000E+00  0.00000000E+00  0.00000000E+00  0.00000000E+00  0.00000000E+00
  0.00000000E+00  0.00000000E+00  0.00000000E+00  0.00000000E+00  0.00000000E+00
  0.00000000E+00  0.00000000E+00  0.00000000E+00  0.00000000E+00  0.00000000E+00
  0.00000000E+00  0.00000000E+00  0.00000000E+00  0.00000000E+00  0.00000000E+00
  0.00000000E+00  0.00000000E+00  0.00000000E+00  0.00000000E+00  0.00000000E+00
  0.00000000E+00  0.00000000E+00  0.00000000E+00  0.00000000E+00  0.00000000E+00
  0.00000000E+00  0.00000000E+00  0.00000000E+00  0.00000000E+00  0.00000000E+00
  0.00000000E+00  0.00000000E+00  0.00000000E+00  0.00000000E+00  1.00000000E+00
  0.00000000E+00  0.00000000E+00  0.00000000E+00  0.00000000E+00  0.00000000E+00
  0.00000000E+00  0.00000000E+00  0.00000000E+00  0.00000000E+00  0.00000000E+00
  0.00000000E+00
Coordinates of each shell                  R   N=         216
  8.87626259E-01  3.31278575E+00  8.23361357E-02  8.87626259E-01  3.31278575E+00
  8.23361357E-02  8.87626259E-01  3.31278575E+00  8.23361357E-02  8.87626259E-01
  3.31278575E+00  8.23361357E-02  8.87626259E-01  3.31278575E+00  8.23361357E-02
  8.87626259E-01  3.31278575E+00  8.23361357E-02  9.99317668E-03  6.60325336E-01
 -6.20950446E-01  9.99317668E-03  6.60325336E-01 -6.20950446E-01  9.99317668E-03
  6.60325336E-01 -6.20950446E-01  9.99317668E-03  6.60325336E-01 -6.20950446E-01
  9.99317668E-03  6.60325336E-01 -6.20950446E-01  9.99317668E-03  6.60325336E-01
 -6.20950446E-01 -2.27769267E+00 -1.86267572E-01  8.07505595E-01 -2.27769267E+00
 -1.86267572E-01  8.07505595E-01 -2.27769267E+00 -1.86267572E-01  8.07505595E-01
 -2.27769267E+00 -1.86267572E-01  8.07505595E-01 -2.27769267E+00 -1.86267572E-01
  8.07505595E-01 -2.27769267E+00 -1.86267572E-01  8.07505595E-01 -4.40590165E+00
 -9.47024325E-01 -2.94408321E-01 -4.40590165E+00 -9.47024325E-01 -2.94408321E-01
 -4.40590165E+00 -9.47024325E-01 -2.94408321E-01 -4.40590165E+00 -9.47024325E-01
 -2.94408321E-01 -4.40590165E+00 -9.47024325E-01 -2.94408321E-01 -4.40590165E+00
 -9.47024325E-01 -2.94408321E-01 -4.58666694E+00 -1.04880621E+00 -2.33994277E+00
 -4.58666694E+00 -1.04880621E+00 -2.33994277E+00 -4.58666694E+00 -1.04880621E+00
 -2.33994277E+00 -4.58666694E+00 -1.04880621E+00 -2.33994277E+00 -4.58666694E+00
 -1.04880621E+00 -2.33994277E+00  2.58308266E+00  3.81975388E+00 -9.54231731E-01
  2.58308266E+00  3.81975388E+00 -9.54231731E-01  2.58308266E+00  3.81975388E+00
 -9.54231731E-01  2.58308266E+00  3.81975388E+00 -9.54231731E-01  2.58308266E+00
  3.81975388E+00 -9.54231731E-01 -6.04375657E+00 -1.49995195E+00  8.09243236E-01
 -6.04375657E+00 -1.49995195E+00  8.09243236E-01 -6.04375657E+00 -1.49995195E+00
  8.09243236E-01 -6.04375657E+00 -1.49995195E+00  8.09243236E-01 -6.04375657E+00
 -1.49995195E+00  8.09243236E-01 -2.13266126E+00 -1.19205166E-01  2.84479577E+00
 -2.13266126E+00 -1.19205166E-01  2.84479577E+00 -2.13266126E+00 -1.19205166E-01
  2.84479577E+00 -2.13266126E+00 -1.19205166E-01  2.84479577E+00 -2.13266126E+00
 -1.19205166E-01  2.84479577E+00 -2.80922727E-01  4.95343770E-01 -2.54659336E+00
 -2.80922727E-01  4.95343770E-01 -2.54659336E+00 -2.80922727E-01  4.95343770E-01
 -2.54659336E+00 -2.80922727E-01  4.95343770E-01 -2.54659336E+00 -2.80922727E-01
  4.95343770E-01 -2.54659336E+00  1.25917331E+00  3.45714757E+00  2.02090647E+00
  1.25917331E+00  3.45714757E+00  2.02090647E+00  1.25917331E+00  3.45714757E+00
  2.02090647E+00  1.25917331E+00  3.45714757E+00  2.02090647E+00  1.25917331E+00
  3.45714757E+00  2.02090647E+00 -6.54210946E-01  4.70609519E+00 -4.16398401E-01
 -6.54210946E-01  4.70609519E+00 -4.16398401E-01 -6.54210946E-01  4.70609519E+00
 -4.16398401E-01 -6.54210946E-01  4.70609519E+00 -4.16398401E-01 -6.54210946E-01
  4.70609519E+00 -4.16398401E-01  2.62187128E+00 -1.57937013E+00  4.32542938E-02
  2.62187128E+00 -1.57937013E+00  4.32542938E-02  2.62187128E+00 -1.57937013E+00
  4.32542938E-02  2.62187128E+00 -1.57937013E+00  4.32542938E-02  2.62187128E+00
 -1.57937013E+00  4.32542938E-02  2.62187128E+00 -1.57937013E+00  4.32542938E-02
  2.62187128E+00 -1.57937013E+00  4.32542938E-02  2.62187128E+00 -1.57937013E+00
  4.32542938E-02  2.62187128E+00 -1.57937013E+00  4.32542938E-02  2.62187128E+00
 -1.57937013E+00  4.32542938E-02  2.62187128E+00 -1.57937013E+00  4.32542938E-02
  2.62187128E+00 -1.57937013E+00  4.32542938E-02  2.62187128E+00 -1.57937013E+00
  4.32542938E-02
Constraint Structure                       R   N=          36
  8.87626259E-01  3.31278575E+00  8.23361357E-02  9.99317668E-03  6.60325336E-01
 -6.20950446E-01 -2.27769267E+00 -1.86267572E-01  8.07505595E-01 -4.40590165E+00
 -9.47024325E-01 -2.94408321E-01 -4.58666694E+00 -1.04880621E+00 -2.33994277E+00
  2.58308266E+00  3.81975388E+00 -9.54231731E-01 -6.04375657E+00 -1.49995195E+00
  8.09243236E-01 -2.13266126E+00 -1.19205166E-01  2.84479577E+00 -2.80922727E-01
  4.95343770E-01 -2.54659336E+00  1.25917331E+00  3.45714757E+00  2.02090647E+00
 -6.54210946E-01  4.70609519E+00 -4.16398401E-01  2.62187128E+00 -1.57937013E+00
  4.32542938E-02
Num ILSW                                   I              100
ILSW                                       I   N=         100
           0           0           0           0           2           0
           0           0           0           0         402          -1
           5           0           0           0           0           0
           0           0           0           0           0           0
           1           0           0           0           0           0
           0           0      100000           0          -1           0
           0           0           0           0           0           0
           0           0           0           1           0           0
           0           0           1           0           0           0
           0           0           4          41           0           0
           0           0           5           0           0           0
           0           0           0           0           0           0
           0           0           0           0           0           0
           0           0           0           0           0           0
           0           0           0           0           0           0
           0           0           0           0           0           0
           0           0           0           0
Num RLSW                                   I               41
RLSW                                       R   N=          41
  8.00000000E-01  7.20000000E-01  1.00000000E+00  8.10000000E-01  2.00000000E-01
  0.00000000E+00  0.00000000E+00  1.00000000E+00  0.00000000E+00  0.00000000E+00
  0.00000000E+00  0.00000000E+00  1.00000000E+00  0.00000000E+00  0.00000000E+00
  0.00000000E+00  0.00000000E+00  1.00000000E+00  0.00000000E+00  0.00000000E+00
  0.00000000E+00  0.00000000E+00  1.00000000E+00  0.00000000E+00  0.00000000E+00
  0.00000000E+00  0.00000000E+00  1.00000000E+00  0.00000000E+00  0.00000000E+00
  0.00000000E+00  0.00000000E+00  0.00000000E+00  0.00000000E+00  0.00000000E+00
  0.00000000E+00  0.00000000E+00  0.00000000E+00  1.00000000E+00  1.00000000E+00
  0.00000000E+00
MxBond                                     I                4
NBond                                      I   N=          12
           4           4           3           3           1           1
           1           1           1           1           1           1
IBond                                      I   N=          48
           2           6          10          11           1           3
           9          12           2           4           8           0
           3           5           7           0           4           0
           0           0           1           0           0           0
           4           0           0           0           3           0
           0           0           2           0           0           0
           1           0           0           0           1           0
           0           0           2           0           0           0
RBond                                      R   N=          48
  1.00000000E+00  1.00000000E+00  1.00000000E+00  1.00000000E+00  1.00000000E+00
  1.00000000E+00  1.00000000E+00  1.00000000E+00  1.00000000E+00  2.00000000E+00
  1.00000000E+00  0.00000000E+00  2.00000000E+00  1.00000000E+00  1.00000000E+00
  0.00000000E+00  1.00000000E+00  0.00000000E+00  0.00000000E+00  0.00000000E+00
  1.00000000E+00  0.00000000E+00  0.00000000E+00  0.00000000E+00  1.00000000E+00
  0.00000000E+00  0.00000000E+00  0.00000000E+00  1.00000000E+00  0.00000000E+00
  0.00000000E+00  0.00000000E+00  1.00000000E+00  0.00000000E+00  0.00000000E+00
  0.00000000E+00  1.00000000E+00  0.00000000E+00  0.00000000E+00  0.00000000E+00
  1.00000000E+00  0.00000000E+00  0.00000000E+00  0.00000000E+00  1.00000000E+00
  0.00000000E+00  0.00000000E+00  0.00000000E+00
Virial Ratio                               R      2.002881468863072E+00
SCF Energy                                 R     -6.168916408147288E+02
Total Energy                               R     -6.168916408147288E+02
RMS Density                                R      9.263461226439223E-12
Nuclear derivative order                   I                0
External E-field                           R   N=          35
  0.00000000E+00  0.00000000E+00  0.00000000E+00  0.00000000E+00  0.00000000E+00
  0.00000000E+00  0.00000000E+00  0.00000000E+00  0.00000000E+00  0.00000000E+00
  0.00000000E+00  0.00000000E+00  0.00000000E+00  0.00000000E+00  0.00000000E+00
  0.00000000E+00  0.00000000E+00  0.00000000E+00  0.00000000E+00  0.00000000E+00
  0.00000000E+00  0.00000000E+00  0.00000000E+00  0.00000000E+00  0.00000000E+00
  0.00000000E+00  0.00000000E+00  0.00000000E+00  0.00000000E+00  0.00000000E+00
  0.00000000E+00  0.00000000E+00  0.00000000E+00  0.00000000E+00  0.00000000E+00
IOpCl                                      I                0
IROHF                                      I                0
Alpha Orbital Energies                     R   N=         167
 -1.01534014E+02 -1.02422601E+01 -1.01932095E+01 -1.01841599E+01 -1.01796475E+01
 -9.44845416E+00 -7.21276845E+00 -7.20337762E+00 -7.20322622E+00 -8.68868348E-01
 -7.86990150E-01 -7.42983759E-01 -6.42880972E-01 -5.83443084E-01 -4.84621522E-01
 -4.78958873E-01 -4.44497313E-01 -4.15539628E-01 -4.07419382E-01 -3.78713548E-01
 -3.65751787E-01 -3.06420174E-01 -2.98935809E-01 -2.80355304E-01 -3.23692838E-02
 -7.66954089E-03  6.30786195E-03  8.61582811E-03  2.19590235E-02  2.85133006E-02
  3.86749187E-02  4.14983127E-02  6.46211362E-02  6.49554911E-02  7.28023900E-02
  8.39523346E-02  8.78172174E-02  9.83620451E-02  1.11136061E-01  1.16119854E-01
  1.19801570E-01  1.22455585E-01  1.30035581E-01  1.30452038E-01  1.34938319E-01
  1.42842932E-01  1.50172946E-01  1.56976791E-01  1.61166809E-01  1.63771503E-01
  1.72946292E-01  1.88782253E-01  1.91974441E-01  2.18952220E-01  2.19549268E-01
  2.27573428E-01  2.47325853E-01  2.60497586E-01  2.71223087E-01  2.96480688E-01
  3.46460864E-01  3.56786232E-01  3.90464036E-01  4.25797129E-01  4.29597814E-01
  4.47424194E-01  4.55584410E-01  4.78798219E-01  4.87800442E-01  4.95739937E-01
  5.25062910E-01  5.27516824E-01  5.66630283E-01  5.88155011E-01  5.98064970E-01
  6.21183517E-01  6.34625360E-01  6.49279719E-01  6.55599418E-01  6.67964644E-01
  6.94802708E-01  7.27020955E-01  7.38267215E-01  7.44636749E-01  7.88935055E-01
  8.19903002E-01  8.31970719E-01  8.64206461E-01  8.92280306E-01  9.04187502E-01
  9.43808136E-01  9.60968475E-01  1.00382174E+00  1.03148640E+00  1.06558017E+00
  1.08423669E+00  1.12644817E+00  1.17668967E+00  1.19855554E+00  1.29373214E+00
  1.39022393E+00  1.42940275E+00  1.45339250E+00  1.47098222E+00  1.50586067E+00
  1.54236774E+00  1.57211043E+00  1.58060934E+00  1.59935983E+00  1.62929505E+00
  1.67048269E+00  1.69270982E+00  1.70559846E+00  1.72939707E+00  1.77995099E+00
  1.79244830E+00  1.87862234E+00  1.88602003E+00  1.94785719E+00  1.99724386E+00
  2.02533200E+00  2.07092830E+00  2.12155054E+00  2.18316804E+00  2.19547787E+00
  2.20904517E+00  2.26475925E+00  2.30204150E+00  2.31522311E+00  2.35622710E+00
  2.38974084E+00  2.44024578E+00  2.48043655E+00  2.49607997E+00  2.52573324E+00
  2.55415605E+00  2.58340675E+00  2.58891428E+00  2.63500870E+00  2.66071825E+00
  2.72609232E+00  2.74187820E+00  2.75942941E+00  2.80392388E+00  2.85199115E+00
  2.85890970E+00  2.93119341E+00  3.08083469E+00  3.10364581E+00  3.18642050E+00
  3.40750172E+00  3.51137984E+00  3.71702402E+00  3.76736506E+00  3.84262032E+00
  3.97362974E+00  4.16894041E+00  4.30002226E+00  9.75616339E+00  2.37379743E+01
  2.38322791E+01  2.39685828E+01  2.42558485E+01  2.59315880E+01  2.59746120E+01
  2.64468280E+01  2.15746008E+02
Alpha MO coefficients                      R   N=       27889
  3.80371187E-07 -9.31427520E-07 -2.68785664E-06 -1.98581857E-06 -1.22316327E-06
  4.54216372E-06  2.03055020E-05  1.55204829E-05  1.21808977E-05  2.05090787E-05
  3.94707917E-05  2.94822818E-05  2.47298085E-05 -1.67352286E-03 -1.51305490E-04
  4.98438336E-04  4.07405030E-05  8.22473560E-06 -2.55985170E-06 -4.99509951E-06
  1.30859123E-05  1.63837447E-07  1.62035104E-06 -3.44853273E-06  1.21059237E-05
 -1.17661449E-05  5.42701808E-06 -1.25638831E-05 -1.41949921E-05  1.81779824E-05
 -2.42919951E-05  1.87760265E-04  1.22963556E-04 -1.21278918E-04 -1.00763282E-05
  3.72881088E-03 -4.72817642E-04  4.50621657E-04  8.33519305E-04  1.14178187E-05
 -8.71889407E-07  3.51915403E-06 -2.44700093E-06  7.73318201E-06 -5.56459805E-07
  1.63523744E-06  4.01978150E-06 -2.52175312E-06 -4.25029504E-06 -7.43828293E-06
 -2.36902397E-05  9.83732913E-06  2.59689801E-05  1.51191189E-05  1.16628491E-05
 -1.20982842E-05 -5.67682614E-05 -1.13324866E-03 -1.20658415E-03 -3.84595962E-04
 -1.03081788E-04  6.66815719E-06  5.83480188E-06 -5.86495781E-06  9.72693134E-07
 -4.39290604E-06  3.41493973E-07 -1.00751663E-06 -1.84917660E-06  6.26982741E-07
  6.80533127E-07  1.00243596E-05  8.88325197E-06 -2.25039688E-06  1.50286901E-06
 -5.46133155E-05 -8.45123508E-05 -1.94003696E-05  6.00415873E-05 -1.66315259E-03
 -3.38966982E-04 -1.80629705E-04 -1.17443959E-04 -5.00092323E-06 -1.75156391E-06
 -3.49746037E-06 -1.75340132E-06 -1.60982567E-06 -2.94200025E-06  3.36501328E-05
  6.05414887E-05  5.37972113E-05  6.66920515E-06 -6.83590146E-08  6.25415496E-06
  1.23787891E-05 -8.55330351E-05  7.60487538E-05  2.27673126E-04  8.20472847E-06
  1.33698220E-05 -1.14977450E-05  2.29361389E-06 -2.07354476E-05 -5.12210650E-05
 -1.33460613E-04 -9.04382598E-07 -2.86205621E-07  1.19179124E-06  5.83135014E-06
 -3.66500454E-05  6.26217559E-05  1.49012684E-04 -1.09249100E-05  2.00714458E-06
  1.39129788E-05 -3.00565078E-06 -6.92127823E-05 -1.28248524E-04  1.22330425E-04
 -6.17253307E-06  1.22607830E-06 -1.78464432E-05  9.63037365E-06 -7.04490529E-05
 -2.32210257E-05  7.65729477E-05 -4.72106070E-06  1.27240856E-05  1.73177770E-05
 -7.54443533E-06  3.66754192E-05 -1.34172121E-04 -2.93586074E-04  1.52625667E-07
 -4.39780798E-06 -6.60602428E-07  4.11609652E-01  6.54076171E-01  1.50039620E-02