(R)-3-chloro-1-butene tau=120                                           
SP        RB3LYP                                                      6-311++G(d,p)       
Number of atoms                            I               12
Info1-9                                    I   N=           9
          26          26           0           0           0         110
           1          18        -502
Full Title                                 C   N=           3
(R)-3-chloro-1-butene tau=120       
Route                                      C   N=           7
#P B3LYP/6-311++G** scf(conver=11) int=ultrafine polar=optro
t cphf(rdfreq,conver=11)
Charge                                     I                0
Multiplicity                               I                1
Number of electrons                        I               48
Number of alpha electrons                  I               24
Number of beta electrons                   I               24
Number of basis functions                  I              167
Number of independent functions            I              167
Number of point charges in /Mol/           I                0
Number of translation vectors              I                0
Atomic numbers                             I   N=          12
           6           6           6           6           1           1
           1           1           1           1           1          17
Nuclear charges                            R   N=          12
  6.00000000E+00  6.00000000E+00  6.00000000E+00  6.00000000E+00  1.00000000E+00
  1.00000000E+00  1.00000000E+00  1.00000000E+00  1.00000000E+00  1.00000000E+00
  1.00000000E+00  1.70000000E+01
Current cartesian coordinates              R   N=          36
  8.83946414E-01  3.30731907E+00  7.39848875E-02  1.08307721E-02  6.60839459E-01
 -6.13130476E-01 -2.27821573E+00 -1.85230834E-01  8.06607124E-01 -4.40728037E+00
 -9.44761650E-01 -2.94787174E-01 -4.58773743E+00 -1.04624454E+00 -2.33581667E+00
  2.64722068E+00  3.83557756E+00 -9.94896748E-01 -6.04313835E+00 -1.49579595E+00
  8.07220416E-01 -2.13278092E+00 -1.18051091E-01  2.85362017E+00 -2.94057709E-01
  4.86012270E-01 -2.64096093E+00  1.28833889E+00  3.46461933E+00  2.16913364E+00
 -6.79599874E-01  4.73031073E+00 -4.26894375E-01  2.62035695E+00 -1.58149556E+00
  4.30910778E-02
Number of symbols in /Mol/                 I                0
Force Field                                I                0
Atom Types                                 C   N=          12
                                                            
                                                            
                        
Int Atom Types                             I   N=          12
           0           0           0           0           0           0
           0           0           0           0           0           0
MM charges                                 R   N=          12
  0.00000000E+00  0.00000000E+00  0.00000000E+00  0.00000000E+00  0.00000000E+00
  0.00000000E+00  0.00000000E+00  0.00000000E+00  0.00000000E+00  0.00000000E+00
  0.00000000E+00  0.00000000E+00
Integer atomic weights                     I   N=          12
          12          12          12          12           1           1
           1           1           1           1           1          35
Real atomic weights                        R   N=          12
  1.20000000E+01  1.20000000E+01  1.20000000E+01  1.20000000E+01  1.00782504E+00
  1.00782504E+00  1.00782504E+00  1.00782504E+00  1.00782504E+00  1.00782504E+00
  1.00782504E+00  3.49688527E+01
Atom fragment info                         I   N=          12
           0           0           0           0           0           0
           0           0           0           0           0           0
Atom residue num                           I   N=          12
           0           0           0           0           0           0
           0           0           0           0           0           0
Nuclear spins                              I   N=          12
           0           0           0           0           1           1
           1           1           1           1           1           3
Nuclear ZEff                               R   N=          12
 -3.60000000E+00 -3.60000000E+00 -3.60000000E+00 -3.60000000E+00 -1.00000000E+00
 -1.00000000E+00 -1.00000000E+00 -1.00000000E+00 -1.00000000E+00 -1.00000000E+00
 -1.00000000E+00 -1.42400000E+01
Nuclear ZNuc                               R   N=          12
  6.00000000E+00  6.00000000E+00  6.00000000E+00  6.00000000E+00  1.00000000E+00
  1.00000000E+00  1.00000000E+00  1.00000000E+00  1.00000000E+00  1.00000000E+00
  1.00000000E+00  1.70000000E+01
Nuclear QMom                               R   N=          12
  0.00000000E+00  0.00000000E+00  0.00000000E+00  0.00000000E+00  0.00000000E+00
  0.00000000E+00  0.00000000E+00  0.00000000E+00  0.00000000E+00  0.00000000E+00
  0.00000000E+00 -8.16500000E+00
Nuclear GFac                               R   N=          12
  0.00000000E+00  0.00000000E+00  0.00000000E+00  0.00000000E+00  2.79284600E+00
  2.79284600E+00  2.79284600E+00  2.79284600E+00  2.79284600E+00  2.79284600E+00
  2.79284600E+00  8.21874000E-01
MicOpt                                     I   N=          12
          -1          -1          -1          -1          -1          -1
          -1          -1          -1          -1          -1          -1
Number of residues                         I                0
Number of secondary structures             I                0
SymInf integers                            I   N=          26
           1           1           1           1           1           0
           0           0           0           0           0           0
           0           0           0           0           0           0
           0           0           0           0           0           0
           0           0
RotTr to input orientation                 R   N=          12
  9.99999779E-01 -6.64764527E-04  0.00000000E+00  6.64764527E-04  9.99999779E-01
  0.00000000E+00  0.00000000E+00  0.00000000E+00  1.00000000E+00 -4.49101289E-05
  8.48235858E-04  1.49011992E-04
Number of contracted shells                I               72
Number of primitive shells                 I              126
Pure/Cartesian d shells                    I                0
Pure/Cartesian f shells                    I                0
Highest angular momentum                   I                2
Largest degree of contraction              I                6
Shell types                                I   N=          72
           0          -1          -1          -1          -1          -2
           0          -1          -1          -1          -1          -2
           0          -1          -1          -1          -1          -2
           0          -1          -1          -1          -1          -2
           0           0           0           0           1           0
           0           0           0           1           0           0
           0           0           1           0           0           0
           0           1           0           0           0           0
           1           0           0           0           0           1
           0           0           0           0           1           0
           0           0           0           0           0          -1
           1           1           1           1           1          -2
Number of primitives per shell             I   N=          72
           6           3           1           1           1           1
           6           3           1           1           1           1
           6           3           1           1           1           1
           6           3           1           1           1           1
           3           1           1           1           1           3
           1           1           1           1           3           1
           1           1           1           3           1           1
           1           1           3           1           1           1
           1           3           1           1           1           1
           3           1           1           1           1           6
           3           1           1           1           1           1
           5           2           1           1           1           1
Shell to atom map                          I   N=          72
           1           1           1           1           1           1
           2           2           2           2           2           2
           3           3           3           3           3           3
           4           4           4           4           4           4
           5           5           5           5           5           6
           6           6           6           6           7           7
           7           7           7           8           8           8
           8           8           9           9           9           9
           9          10          10          10          10          10
          11          11          11          11          11          12
          12          12          12          12          12          12
          12          12          12          12          12          12
Primitive exponents                        R   N=         126
  4.56324000E+03  6.82024000E+02  1.54973000E+02  4.44553000E+01  1.30290000E+01
  1.82773000E+00  2.09642000E+01  4.80331000E+00  1.45933000E+00  4.83456000E-01
  1.45585000E-01  4.38000000E-02  6.26000000E-01  4.56324000E+03  6.82024000E+02
  1.54973000E+02  4.44553000E+01  1.30290000E+01  1.82773000E+00  2.09642000E+01
  4.80331000E+00  1.45933000E+00  4.83456000E-01  1.45585000E-01  4.38000000E-02
  6.26000000E-01  4.56324000E+03  6.82024000E+02  1.54973000E+02  4.44553000E+01
  1.30290000E+01  1.82773000E+00  2.09642000E+01  4.80331000E+00  1.45933000E+00
  4.83456000E-01  1.45585000E-01  4.38000000E-02  6.26000000E-01  4.56324000E+03
  6.82024000E+02  1.54973000E+02  4.44553000E+01  1.30290000E+01  1.82773000E+00
  2.09642000E+01  4.80331000E+00  1.45933000E+00  4.83456000E-01  1.45585000E-01
  4.38000000E-02  6.26000000E-01  3.38650000E+01  5.09479000E+00  1.15879000E+00
  3.25840000E-01  1.02741000E-01  3.60000000E-02  7.50000000E-01  3.38650000E+01
  5.09479000E+00  1.15879000E+00  3.25840000E-01  1.02741000E-01  3.60000000E-02
  7.50000000E-01  3.38650000E+01  5.09479000E+00  1.15879000E+00  3.25840000E-01
  1.02741000E-01  3.60000000E-02  7.50000000E-01  3.38650000E+01  5.09479000E+00
  1.15879000E+00  3.25840000E-01  1.02741000E-01  3.60000000E-02  7.50000000E-01
  3.38650000E+01  5.09479000E+00  1.15879000E+00  3.25840000E-01  1.02741000E-01
  3.60000000E-02  7.50000000E-01  3.38650000E+01  5.09479000E+00  1.15879000E+00
  3.25840000E-01  1.02741000E-01  3.60000000E-02  7.50000000E-01  3.38650000E+01
  5.09479000E+00  1.15879000E+00  3.25840000E-01  1.02741000E-01  3.60000000E-02
  7.50000000E-01  1.05819000E+05  1.58720000E+04  3.61965000E+03  1.03080000E+03
  3.39908000E+02  1.24538000E+02  1.24538000E+02  4.95135000E+01  2.08056000E+01
  6.58346000E+00  2.56468000E+00  5.59763000E-01  1.83273000E-01  4.83000000E-02
  5.89776000E+02  1.39849000E+02  4.51413000E+01  1.68733000E+01  2.77152000E+00
  6.74110000E+00  2.77152000E+00  1.02387000E+00  3.81368000E-01  1.09437000E-01
  7.50000000E-01
Contraction coefficients                   R   N=         126
  1.96665025E-03  1.52306019E-02  7.61269097E-02  2.60801033E-01  6.16462078E-01
  2.21006028E-01  1.14660081E-01  9.19999648E-01 -3.03068213E-03  1.00000000E+00
  1.00000000E+00  1.00000000E+00  1.00000000E+00  1.96665025E-03  1.52306019E-02
  7.61269097E-02  2.60801033E-01  6.16462078E-01  2.21006028E-01  1.14660081E-01
  9.19999648E-01 -3.03068213E-03  1.00000000E+00  1.00000000E+00  1.00000000E+00
  1.00000000E+00  1.96665025E-03  1.52306019E-02  7.61269097E-02  2.60801033E-01
  6.16462078E-01  2.21006028E-01  1.14660081E-01  9.19999648E-01 -3.03068213E-03
  1.00000000E+00  1.00000000E+00  1.00000000E+00  1.00000000E+00  1.96665025E-03
  1.52306019E-02  7.61269097E-02  2.60801033E-01  6.16462078E-01  2.21006028E-01
  1.14660081E-01  9.19999648E-01 -3.03068213E-03  1.00000000E+00  1.00000000E+00
  1.00000000E+00  1.00000000E+00  2.54938145E-02  1.90373109E-01  8.52161486E-01
  1.00000000E+00  1.00000000E+00  1.00000000E+00  1.00000000E+00  2.54938145E-02
  1.90373109E-01  8.52161486E-01  1.00000000E+00  1.00000000E+00  1.00000000E+00
  1.00000000E+00  2.54938145E-02  1.90373109E-01  8.52161486E-01  1.00000000E+00
  1.00000000E+00  1.00000000E+00  1.00000000E+00  2.54938145E-02  1.90373109E-01
  8.52161486E-01  1.00000000E+00  1.00000000E+00  1.00000000E+00  1.00000000E+00
  2.54938145E-02  1.90373109E-01  8.52161486E-01  1.00000000E+00  1.00000000E+00
  1.00000000E+00  1.00000000E+00  2.54938145E-02  1.90373109E-01  8.52161486E-01
  1.00000000E+00  1.00000000E+00  1.00000000E+00  1.00000000E+00  2.54938145E-02
  1.90373109E-01  8.52161486E-01  1.00000000E+00  1.00000000E+00  1.00000000E+00
  1.00000000E+00  7.38000247E-04  5.71800191E-03  2.94950099E-02  1.17286039E-01
  3.62949121E-01  5.84149195E-01  1.34176973E-01  6.24249876E-01  2.91755942E-01
  1.00000000E+00  1.00000000E+00  1.00000000E+00  1.00000000E+00  1.00000000E+00
  3.66556935E-03  2.83679194E-02  1.24756603E-01  3.39654631E-01  7.47585963E-01
 -1.57224381E+00  9.92388882E-01  1.00000000E+00  1.00000000E+00  1.00000000E+00
  1.00000000E+00
P(S=P) Contraction coefficients            R   N=         126
  0.00000000E+00  0.00000000E+00  0.00000000E+00  0.00000000E+00  0.00000000E+00
  0.00000000E+00  4.02486927E-02  2.37593957E-01  8.15853851E-01  1.00000000E+00
  1.00000000E+00  1.00000000E+00  0.00000000E+00  0.00000000E+00  0.00000000E+00
  0.00000000E+00  0.00000000E+00  0.00000000E+00  0.00000000E+00  4.02486927E-02
  2.37593957E-01  8.15853851E-01  1.00000000E+00  1.00000000E+00  1.00000000E+00
  0.00000000E+00  0.00000000E+00  0.00000000E+00  0.00000000E+00  0.00000000E+00
  0.00000000E+00  0.00000000E+00  4.02486927E-02  2.37593957E-01  8.15853851E-01
  1.00000000E+00  1.00000000E+00  1.00000000E+00  0.00000000E+00  0.00000000E+00
  0.00000000E+00  0.00000000E+00  0.00000000E+00  0.00000000E+00  0.00000000E+00
  4.02486927E-02  2.37593957E-01  8.15853851E-01  1.00000000E+00  1.00000000E+00
  1.00000000E+00  0.00000000E+00  0.00000000E+00  0.00000000E+00  0.00000000E+00
  0.00000000E+00  0.00000000E+00  0.00000000E+00  0.00000000E+00  0.00000000E+00
  0.00000000E+00  0.00000000E+00  0.00000000E+00  0.00000000E+00  0.00000000E+00
  0.00000000E+00  0.00000000E+00  0.00000000E+00  0.00000000E+00  0.00000000E+00
  0.00000000E+00  0.00000000E+00  0.00000000E+00  0.00000000E+00  0.00000000E+00
  0.00000000E+00  0.00000000E+00  0.00000000E+00  0.00000000E+00  0.00000000E+00
  0.00000000E+00  0.00000000E+00  0.00000000E+00  0.00000000E+00  0.00000000E+00
  0.00000000E+00  0.00000000E+00  0.00000000E+00  0.00000000E+00  0.00000000E+00
  0.00000000E+00  0.00000000E+00  0.00000000E+00  0.00000000E+00  0.00000000E+00
  0.00000000E+00  0.00000000E+00  0.00000000E+00  0.00000000E+00  0.00000000E+00
  0.00000000E+00  0.00000000E+00  0.00000000E+00  0.00000000E+00  0.00000000E+00
  0.00000000E+00  0.00000000E+00  0.00000000E+00  0.00000000E+00  0.00000000E+00
  0.00000000E+00  0.00000000E+00  0.00000000E+00  0.00000000E+00  1.00000000E+00
  0.00000000E+00  0.00000000E+00  0.00000000E+00  0.00000000E+00  0.00000000E+00
  0.00000000E+00  0.00000000E+00  0.00000000E+00  0.00000000E+00  0.00000000E+00
  0.00000000E+00
Coordinates of each shell                  R   N=         216
  8.83946414E-01  3.30731907E+00  7.39848875E-02  8.83946414E-01  3.30731907E+00
  7.39848875E-02  8.83946414E-01  3.30731907E+00  7.39848875E-02  8.83946414E-01
  3.30731907E+00  7.39848875E-02  8.83946414E-01  3.30731907E+00  7.39848875E-02
  8.83946414E-01  3.30731907E+00  7.39848875E-02  1.08307721E-02  6.60839459E-01
 -6.13130476E-01  1.08307721E-02  6.60839459E-01 -6.13130476E-01  1.08307721E-02
  6.60839459E-01 -6.13130476E-01  1.08307721E-02  6.60839459E-01 -6.13130476E-01
  1.08307721E-02  6.60839459E-01 -6.13130476E-01  1.08307721E-02  6.60839459E-01
 -6.13130476E-01 -2.27821573E+00 -1.85230834E-01  8.06607124E-01 -2.27821573E+00
 -1.85230834E-01  8.06607124E-01 -2.27821573E+00 -1.85230834E-01  8.06607124E-01
 -2.27821573E+00 -1.85230834E-01  8.06607124E-01 -2.27821573E+00 -1.85230834E-01
  8.06607124E-01 -2.27821573E+00 -1.85230834E-01  8.06607124E-01 -4.40728037E+00
 -9.44761650E-01 -2.94787174E-01 -4.40728037E+00 -9.44761650E-01 -2.94787174E-01
 -4.40728037E+00 -9.44761650E-01 -2.94787174E-01 -4.40728037E+00 -9.44761650E-01
 -2.94787174E-01 -4.40728037E+00 -9.44761650E-01 -2.94787174E-01 -4.40728037E+00
 -9.44761650E-01 -2.94787174E-01 -4.58773743E+00 -1.04624454E+00 -2.33581667E+00
 -4.58773743E+00 -1.04624454E+00 -2.33581667E+00 -4.58773743E+00 -1.04624454E+00
 -2.33581667E+00 -4.58773743E+00 -1.04624454E+00 -2.33581667E+00 -4.58773743E+00
 -1.04624454E+00 -2.33581667E+00  2.64722068E+00  3.83557756E+00 -9.94896748E-01
  2.64722068E+00  3.83557756E+00 -9.94896748E-01  2.64722068E+00  3.83557756E+00
 -9.94896748E-01  2.64722068E+00  3.83557756E+00 -9.94896748E-01  2.64722068E+00
  3.83557756E+00 -9.94896748E-01 -6.04313835E+00 -1.49579595E+00  8.07220416E-01
 -6.04313835E+00 -1.49579595E+00  8.07220416E-01 -6.04313835E+00 -1.49579595E+00
  8.07220416E-01 -6.04313835E+00 -1.49579595E+00  8.07220416E-01 -6.04313835E+00
 -1.49579595E+00  8.07220416E-01 -2.13278092E+00 -1.18051091E-01  2.85362017E+00
 -2.13278092E+00 -1.18051091E-01  2.85362017E+00 -2.13278092E+00 -1.18051091E-01
  2.85362017E+00 -2.13278092E+00 -1.18051091E-01  2.85362017E+00 -2.13278092E+00
 -1.18051091E-01  2.85362017E+00 -2.94057709E-01  4.86012270E-01 -2.64096093E+00
 -2.94057709E-01  4.86012270E-01 -2.64096093E+00 -2.94057709E-01  4.86012270E-01
 -2.64096093E+00 -2.94057709E-01  4.86012270E-01 -2.64096093E+00 -2.94057709E-01
  4.86012270E-01 -2.64096093E+00  1.28833889E+00  3.46461933E+00  2.16913364E+00
  1.28833889E+00  3.46461933E+00  2.16913364E+00  1.28833889E+00  3.46461933E+00
  2.16913364E+00  1.28833889E+00  3.46461933E+00  2.16913364E+00  1.28833889E+00
  3.46461933E+00  2.16913364E+00 -6.79599874E-01  4.73031073E+00 -4.26894375E-01
 -6.79599874E-01  4.73031073E+00 -4.26894375E-01 -6.79599874E-01  4.73031073E+00
 -4.26894375E-01 -6.79599874E-01  4.73031073E+00 -4.26894375E-01 -6.79599874E-01
  4.73031073E+00 -4.26894375E-01  2.62035695E+00 -1.58149556E+00  4.30910778E-02
  2.62035695E+00 -1.58149556E+00  4.30910778E-02  2.62035695E+00 -1.58149556E+00
  4.30910778E-02  2.62035695E+00 -1.58149556E+00  4.30910778E-02  2.62035695E+00
 -1.58149556E+00  4.30910778E-02  2.62035695E+00 -1.58149556E+00  4.30910778E-02
  2.62035695E+00 -1.58149556E+00  4.30910778E-02  2.62035695E+00 -1.58149556E+00
  4.30910778E-02  2.62035695E+00 -1.58149556E+00  4.30910778E-02  2.62035695E+00
 -1.58149556E+00  4.30910778E-02  2.62035695E+00 -1.58149556E+00  4.30910778E-02
  2.62035695E+00 -1.58149556E+00  4.30910778E-02  2.62035695E+00 -1.58149556E+00
  4.30910778E-02
Constraint Structure                       R   N=          36
  8.83946414E-01  3.30731907E+00  7.39848875E-02  1.08307721E-02  6.60839459E-01
 -6.13130476E-01 -2.27821573E+00 -1.85230834E-01  8.06607124E-01 -4.40728037E+00
 -9.44761650E-01 -2.94787174E-01 -4.58773743E+00 -1.04624454E+00 -2.33581667E+00
  2.64722068E+00  3.83557756E+00 -9.94896748E-01 -6.04313835E+00 -1.49579595E+00
  8.07220416E-01 -2.13278092E+00 -1.18051091E-01  2.85362017E+00 -2.94057709E-01
  4.86012270E-01 -2.64096093E+00  1.28833889E+00  3.46461933E+00  2.16913364E+00
 -6.79599874E-01  4.73031073E+00 -4.26894375E-01  2.62035695E+00 -1.58149556E+00
  4.30910778E-02
Num ILSW                                   I              100
ILSW                                       I   N=         100
           0           0           0           0           2           0
           0           0           0           0         402          -1
           5           0           0           0           0           0
           0           0           0           0           0           0
           1           0           0           0           0           0
           0           0      100000           0          -1           0
           0           0           0           0           0           0
           0           0           0           1           0           0
           0           0           1           0           0           0
           0           0           4          41           0           0
           0           0           5           0           0           0
           0           0           0           0           0           0
           0           0           0           0           0           0
           0           0           0           0           0           0
           0           0           0           0           0           0
           0           0           0           0           0           0
           0           0           0           0
Num RLSW                                   I               41
RLSW                                       R   N=          41
  8.00000000E-01  7.20000000E-01  1.00000000E+00  8.10000000E-01  2.00000000E-01
  0.00000000E+00  0.00000000E+00  1.00000000E+00  0.00000000E+00  0.00000000E+00
  0.00000000E+00  0.00000000E+00  1.00000000E+00  0.00000000E+00  0.00000000E+00
  0.00000000E+00  0.00000000E+00  1.00000000E+00  0.00000000E+00  0.00000000E+00
  0.00000000E+00  0.00000000E+00  1.00000000E+00  0.00000000E+00  0.00000000E+00
  0.00000000E+00  0.00000000E+00  1.00000000E+00  0.00000000E+00  0.00000000E+00
  0.00000000E+00  0.00000000E+00  0.00000000E+00  0.00000000E+00  0.00000000E+00
  0.00000000E+00  0.00000000E+00  0.00000000E+00  1.00000000E+00  1.00000000E+00
  0.00000000E+00
MxBond                                     I                4
NBond                                      I   N=          12
           4           4           3           3           1           1
           1           1           1           1           1           1
IBond                                      I   N=          48
           2           6          10          11           1           3
           9          12           2           4           8           0
           3           5           7           0           4           0
           0           0           1           0           0           0
           4           0           0           0           3           0
           0           0           2           0           0           0
           1           0           0           0           1           0
           0           0           2           0           0           0
RBond                                      R   N=          48
  1.00000000E+00  1.00000000E+00  1.00000000E+00  1.00000000E+00  1.00000000E+00
  1.00000000E+00  1.00000000E+00  1.00000000E+00  1.00000000E+00  2.00000000E+00
  1.00000000E+00  0.00000000E+00  2.00000000E+00  1.00000000E+00  1.00000000E+00
  0.00000000E+00  1.00000000E+00  0.00000000E+00  0.00000000E+00  0.00000000E+00
  1.00000000E+00  0.00000000E+00  0.00000000E+00  0.00000000E+00  1.00000000E+00
  0.00000000E+00  0.00000000E+00  0.00000000E+00  1.00000000E+00  0.00000000E+00
  0.00000000E+00  0.00000000E+00  1.00000000E+00  0.00000000E+00  0.00000000E+00
  0.00000000E+00  1.00000000E+00  0.00000000E+00  0.00000000E+00  0.00000000E+00
  1.00000000E+00  0.00000000E+00  0.00000000E+00  0.00000000E+00  1.00000000E+00
  0.00000000E+00  0.00000000E+00  0.00000000E+00
Virial Ratio                               R      2.003299882905254E+00
SCF Energy                                 R     -6.168924834922723E+02
Total Energy                               R     -6.168924834922723E+02
RMS Density                                R      9.974419419685830E-12
Nuclear derivative order                   I                0
External E-field                           R   N=          35
  0.00000000E+00  0.00000000E+00  0.00000000E+00  0.00000000E+00  0.00000000E+00
  0.00000000E+00  0.00000000E+00  0.00000000E+00  0.00000000E+00  0.00000000E+00
  0.00000000E+00  0.00000000E+00  0.00000000E+00  0.00000000E+00  0.00000000E+00
  0.00000000E+00  0.00000000E+00  0.00000000E+00  0.00000000E+00  0.00000000E+00
  0.00000000E+00  0.00000000E+00  0.00000000E+00  0.00000000E+00  0.00000000E+00
  0.00000000E+00  0.00000000E+00  0.00000000E+00  0.00000000E+00  0.00000000E+00
  0.00000000E+00  0.00000000E+00  0.00000000E+00  0.00000000E+00  0.00000000E+00
IOpCl                                      I                0
IROHF                                      I                0
Alpha Orbital Energies                     R   N=         167
 -1.01534555E+02 -1.02482221E+01 -1.01941996E+01 -1.01940368E+01 -1.01842068E+01
 -9.44898215E+00 -7.21332873E+00 -7.20389022E+00 -7.20373720E+00 -8.67782939E-01
 -7.87326952E-01 -7.37881906E-01 -6.35948120E-01 -5.77645920E-01 -4.84616692E-01
 -4.75253862E-01 -4.41254098E-01 -4.15740351E-01 -3.99657014E-01 -3.72467323E-01
 -3.64457057E-01 -3.06572183E-01 -2.99078962E-01 -2.80673613E-01 -3.32397322E-02
 -8.46295874E-03  5.59635247E-03  7.03318376E-03  2.08195727E-02  2.82131840E-02
  3.81109750E-02  4.02639717E-02  6.31167906E-02  6.41210943E-02  7.20534525E-02
  8.25628983E-02  8.69849441E-02  9.76170298E-02  1.10396217E-01  1.14982611E-01
  1.17507325E-01  1.21312813E-01  1.28758058E-01  1.29791292E-01  1.33513689E-01
  1.41910087E-01  1.49364908E-01  1.55832834E-01  1.59630982E-01  1.61631962E-01
  1.68456923E-01  1.83923775E-01  1.89536501E-01  2.13207392E-01  2.17950354E-01
  2.25291766E-01  2.44544153E-01  2.60697930E-01  2.68869590E-01  2.85793230E-01
  3.37187232E-01  3.56564428E-01  3.89966284E-01  4.26174435E-01  4.30298137E-01
  4.46996991E-01  4.57844370E-01  4.77828578E-01  4.87601720E-01  4.95298705E-01
  5.23146208E-01  5.27835301E-01  5.65524269E-01  5.86014185E-01  5.98663125E-01
  6.18244077E-01  6.25164094E-01  6.43061040E-01  6.52735353E-01  6.55931302E-01
  6.84156963E-01  7.05951026E-01  7.21272896E-01  7.37802451E-01  7.84449490E-01
  8.13875365E-01  8.30873423E-01  8.62830363E-01  8.91260851E-01  9.02474733E-01
  9.42603481E-01  9.59395583E-01  1.00556270E+00  1.03093598E+00  1.06454653E+00
  1.08395483E+00  1.12565924E+00  1.17521966E+00  1.19716266E+00  1.29078511E+00
  1.38749665E+00  1.42297482E+00  1.43127638E+00  1.46653915E+00  1.50045207E+00
  1.53971221E+00  1.54194705E+00  1.56955121E+00  1.59174320E+00  1.62288876E+00
  1.66352425E+00  1.68605476E+00  1.69476094E+00  1.71976210E+00  1.76439305E+00
  1.78521733E+00  1.87010837E+00  1.87260250E+00  1.92881970E+00  1.97473891E+00
  2.01323097E+00  2.04772542E+00  2.10752580E+00  2.17380477E+00  2.18836368E+00
  2.19052433E+00  2.23917101E+00  2.28918998E+00  2.30546992E+00  2.33631536E+00
  2.34979732E+00  2.39015834E+00  2.44731137E+00  2.47527878E+00  2.50084415E+00
  2.53517764E+00  2.56667284E+00  2.58614373E+00  2.59428083E+00  2.65668235E+00
  2.73006259E+00  2.73619255E+00  2.74880702E+00  2.77820993E+00  2.85378290E+00
  2.86118248E+00  2.92935663E+00  3.08447465E+00  3.09070512E+00  3.18326871E+00
  3.39942395E+00  3.50693250E+00  3.69561793E+00  3.71338156E+00  3.72309745E+00
  3.94820821E+00  4.09407078E+00  4.28105125E+00  9.75547572E+00  2.37213908E+01
  2.37914794E+01  2.38411436E+01  2.42547390E+01  2.59302874E+01  2.59733820E+01
  2.64450293E+01  2.15745341E+02
Alpha MO coefficients                      R   N=       27889
  3.80208372E-08 -8.34213666E-09 -2.12085969E-06 -2.32051601E-06 -1.17873423E-06
 -2.20894689E-06  1.37690164E-05  1.64072748E-05  7.34874303E-06  1.22826730E-06
  3.62161481E-05  2.92662646E-05  2.09773390E-05 -1.69335357E-03 -1.44081491E-04
  5.04046933E-04  3.95309856E-05  6.40885115E-06 -2.65971483E-06 -4.58209184E-06
  1.22947369E-05 -5.46067968E-07  1.47822015E-06 -3.06564796E-06  1.21093300E-05
 -1.18983965E-05  5.26432188E-06 -1.54684301E-05 -1.36437149E-05  1.92828127E-05
 -1.91552964E-05  1.74315686E-04  1.28746249E-04 -1.20512212E-04 -5.51490208E-06
  3.75390067E-03 -4.73737561E-04  4.59685454E-04  8.34713710E-04  9.50754125E-06
 -1.34602141E-06  3.39219732E-06 -2.43432363E-06  7.97342861E-06 -5.89890258E-07
  1.72350840E-06  4.04850178E-06 -2.54023784E-06 -4.27017322E-06 -8.13334643E-06
 -2.40673983E-05  9.73805297E-06  2.56490531E-05  2.16986102E-05  1.12945779E-05
 -1.11963367E-05 -6.24003443E-05 -1.09195426E-03 -1.22556324E-03 -3.91803273E-04
 -1.10387000E-04  6.50677824E-06  5.96661834E-06 -5.84873753E-06  8.66300645E-07
 -4.21204697E-06  3.37901283E-07 -1.00105704E-06 -1.79396748E-06  6.41384267E-07
  6.92598240E-07  1.01365266E-05  8.49136377E-06 -2.34582294E-06  1.59156901E-06
 -6.01882239E-05 -8.70277354E-05 -2.06036517E-05  6.13627440E-05 -1.70767999E-03
 -3.45934209E-04 -1.82826797E-04 -1.27343895E-04 -5.05357151E-06 -1.88122223E-06
 -3.56540038E-06 -1.81327274E-06 -1.68599346E-06 -3.08159847E-06  3.50238751E-05
  6.01824833E-05  4.65257630E-05  6.75473309E-06 -1.49489970E-08  6.41960262E-06
  1.26971206E-05 -7.76959099E-05  7.68424323E-05  2.12111393E-04  6.78049770E-06
  1.25835130E-05 -9.60975761E-06  2.31405647E-06 -2.12750841E-05 -5.11205194E-05
 -1.29814903E-04 -9.30147818E-07 -2.55927316E-07  1.25284060E-06  5.75189848E-06
 -3.49386447E-05  6.36580614E-05  1.47545182E-04 -1.09290620E-05  1.92581221E-06
  1.35980108E-05 -1.26952646E-06 -6.08429181E-05 -1.18103540E-04  1.23477220E-04
 -6.53260880E-06  1.95904630E-06 -1.59269412E-05  1.04325167E-05 -5.76002351E-05
 -1.72473894E-05  7.17014030E-05 -4.47046765E-06  1.22151828E-05  1.33382665E-05
 -7.83698372E-06  3.56462563E-05 -1.29447899E-04 -2.80808231E-04 -5.11732137E-07
 -3.64074789E-06 -9.05006864E-07  4.11609648E-01  6.54076195E-01  1.50038959E-02