(R)-3-chloro-1-butene tau=120                                           
SP        RB3LYP                                                      6-311++G(d,p)       
Number of atoms                            I               12
Info1-9                                    I   N=           9
          26          26           0           0           0         110
           1          18        -502
Full Title                                 C   N=           3
(R)-3-chloro-1-butene tau=120       
Route                                      C   N=           7
#P B3LYP/6-311++G** scf(conver=11) int=ultrafine polar=optro
t cphf(rdfreq,conver=11)
Charge                                     I                0
Multiplicity                               I                1
Number of electrons                        I               48
Number of alpha electrons                  I               24
Number of beta electrons                   I               24
Number of basis functions                  I              167
Number of independent functions            I              167
Number of point charges in /Mol/           I                0
Number of translation vectors              I                0
Atomic numbers                             I   N=          12
           6           6           6           6           1           1
           1           1           1           1           1          17
Nuclear charges                            R   N=          12
  6.00000000E+00  6.00000000E+00  6.00000000E+00  6.00000000E+00  1.00000000E+00
  1.00000000E+00  1.00000000E+00  1.00000000E+00  1.00000000E+00  1.00000000E+00
  1.00000000E+00  1.70000000E+01
Current cartesian coordinates              R   N=          36
  8.89137989E-01  3.31415782E+00  7.76296480E-02  1.19338076E-02  6.61980149E-01
 -6.05022220E-01 -2.27679155E+00 -1.88353373E-01  8.06160117E-01 -4.40474956E+00
 -9.51392333E-01 -2.94003515E-01 -4.58481092E+00 -1.05295336E+00 -2.33051749E+00
  2.52917403E+00  3.80834352E+00 -9.22991886E-01 -6.03636540E+00 -1.50405422E+00
  8.05841774E-01 -2.12972421E+00 -1.20140963E-01  2.87217954E+00 -3.05153404E-01
  4.78377630E-01 -2.72362446E+00  1.26474317E+00  3.46065061E+00  2.06086268E+00
 -6.65534050E-01  4.71364035E+00 -4.19367909E-01  2.62414628E+00 -1.57660101E+00
  4.40607986E-02
Number of symbols in /Mol/                 I                0
Force Field                                I                0
Atom Types                                 C   N=          12
                                                            
                                                            
                        
Int Atom Types                             I   N=          12
           0           0           0           0           0           0
           0           0           0           0           0           0
MM charges                                 R   N=          12
  0.00000000E+00  0.00000000E+00  0.00000000E+00  0.00000000E+00  0.00000000E+00
  0.00000000E+00  0.00000000E+00  0.00000000E+00  0.00000000E+00  0.00000000E+00
  0.00000000E+00  0.00000000E+00
Integer atomic weights                     I   N=          12
          12          12          12          12           1           1
           1           1           1           1           1          35
Real atomic weights                        R   N=          12
  1.20000000E+01  1.20000000E+01  1.20000000E+01  1.20000000E+01  1.00782504E+00
  1.00782504E+00  1.00782504E+00  1.00782504E+00  1.00782504E+00  1.00782504E+00
  1.00782504E+00  3.49688527E+01
Atom fragment info                         I   N=          12
           0           0           0           0           0           0
           0           0           0           0           0           0
Atom residue num                           I   N=          12
           0           0           0           0           0           0
           0           0           0           0           0           0
Nuclear spins                              I   N=          12
           0           0           0           0           1           1
           1           1           1           1           1           3
Nuclear ZEff                               R   N=          12
 -3.60000000E+00 -3.60000000E+00 -3.60000000E+00 -3.60000000E+00 -1.00000000E+00
 -1.00000000E+00 -1.00000000E+00 -1.00000000E+00 -1.00000000E+00 -1.00000000E+00
 -1.00000000E+00 -1.42400000E+01
Nuclear ZNuc                               R   N=          12
  6.00000000E+00  6.00000000E+00  6.00000000E+00  6.00000000E+00  1.00000000E+00
  1.00000000E+00  1.00000000E+00  1.00000000E+00  1.00000000E+00  1.00000000E+00
  1.00000000E+00  1.70000000E+01
Nuclear QMom                               R   N=          12
  0.00000000E+00  0.00000000E+00  0.00000000E+00  0.00000000E+00  0.00000000E+00
  0.00000000E+00  0.00000000E+00  0.00000000E+00  0.00000000E+00  0.00000000E+00
  0.00000000E+00 -8.16500000E+00
Nuclear GFac                               R   N=          12
  0.00000000E+00  0.00000000E+00  0.00000000E+00  0.00000000E+00  2.79284600E+00
  2.79284600E+00  2.79284600E+00  2.79284600E+00  2.79284600E+00  2.79284600E+00
  2.79284600E+00  8.21874000E-01
MicOpt                                     I   N=          12
          -1          -1          -1          -1          -1          -1
          -1          -1          -1          -1          -1          -1
Number of residues                         I                0
Number of secondary structures             I                0
SymInf integers                            I   N=          26
           1           1           1           1           1           0
           0           0           0           0           0           0
           0           0           0           0           0           0
           0           0           0           0           0           0
           0           0
RotTr to input orientation                 R   N=          12
  9.99997368E-01 -2.29436114E-03  0.00000000E+00  2.29436114E-03  9.99997368E-01
  0.00000000E+00  0.00000000E+00  0.00000000E+00  1.00000000E+00 -1.27030816E-03
  2.20783397E-04 -8.42572978E-04
Number of contracted shells                I               72
Number of primitive shells                 I              126
Pure/Cartesian d shells                    I                0
Pure/Cartesian f shells                    I                0
Highest angular momentum                   I                2
Largest degree of contraction              I                6
Shell types                                I   N=          72
           0          -1          -1          -1          -1          -2
           0          -1          -1          -1          -1          -2
           0          -1          -1          -1          -1          -2
           0          -1          -1          -1          -1          -2
           0           0           0           0           1           0
           0           0           0           1           0           0
           0           0           1           0           0           0
           0           1           0           0           0           0
           1           0           0           0           0           1
           0           0           0           0           1           0
           0           0           0           0           0          -1
           1           1           1           1           1          -2
Number of primitives per shell             I   N=          72
           6           3           1           1           1           1
           6           3           1           1           1           1
           6           3           1           1           1           1
           6           3           1           1           1           1
           3           1           1           1           1           3
           1           1           1           1           3           1
           1           1           1           3           1           1
           1           1           3           1           1           1
           1           3           1           1           1           1
           3           1           1           1           1           6
           3           1           1           1           1           1
           5           2           1           1           1           1
Shell to atom map                          I   N=          72
           1           1           1           1           1           1
           2           2           2           2           2           2
           3           3           3           3           3           3
           4           4           4           4           4           4
           5           5           5           5           5           6
           6           6           6           6           7           7
           7           7           7           8           8           8
           8           8           9           9           9           9
           9          10          10          10          10          10
          11          11          11          11          11          12
          12          12          12          12          12          12
          12          12          12          12          12          12
Primitive exponents                        R   N=         126
  4.56324000E+03  6.82024000E+02  1.54973000E+02  4.44553000E+01  1.30290000E+01
  1.82773000E+00  2.09642000E+01  4.80331000E+00  1.45933000E+00  4.83456000E-01
  1.45585000E-01  4.38000000E-02  6.26000000E-01  4.56324000E+03  6.82024000E+02
  1.54973000E+02  4.44553000E+01  1.30290000E+01  1.82773000E+00  2.09642000E+01
  4.80331000E+00  1.45933000E+00  4.83456000E-01  1.45585000E-01  4.38000000E-02
  6.26000000E-01  4.56324000E+03  6.82024000E+02  1.54973000E+02  4.44553000E+01
  1.30290000E+01  1.82773000E+00  2.09642000E+01  4.80331000E+00  1.45933000E+00
  4.83456000E-01  1.45585000E-01  4.38000000E-02  6.26000000E-01  4.56324000E+03
  6.82024000E+02  1.54973000E+02  4.44553000E+01  1.30290000E+01  1.82773000E+00
  2.09642000E+01  4.80331000E+00  1.45933000E+00  4.83456000E-01  1.45585000E-01
  4.38000000E-02  6.26000000E-01  3.38650000E+01  5.09479000E+00  1.15879000E+00
  3.25840000E-01  1.02741000E-01  3.60000000E-02  7.50000000E-01  3.38650000E+01
  5.09479000E+00  1.15879000E+00  3.25840000E-01  1.02741000E-01  3.60000000E-02
  7.50000000E-01  3.38650000E+01  5.09479000E+00  1.15879000E+00  3.25840000E-01
  1.02741000E-01  3.60000000E-02  7.50000000E-01  3.38650000E+01  5.09479000E+00
  1.15879000E+00  3.25840000E-01  1.02741000E-01  3.60000000E-02  7.50000000E-01
  3.38650000E+01  5.09479000E+00  1.15879000E+00  3.25840000E-01  1.02741000E-01
  3.60000000E-02  7.50000000E-01  3.38650000E+01  5.09479000E+00  1.15879000E+00
  3.25840000E-01  1.02741000E-01  3.60000000E-02  7.50000000E-01  3.38650000E+01
  5.09479000E+00  1.15879000E+00  3.25840000E-01  1.02741000E-01  3.60000000E-02
  7.50000000E-01  1.05819000E+05  1.58720000E+04  3.61965000E+03  1.03080000E+03
  3.39908000E+02  1.24538000E+02  1.24538000E+02  4.95135000E+01  2.08056000E+01
  6.58346000E+00  2.56468000E+00  5.59763000E-01  1.83273000E-01  4.83000000E-02
  5.89776000E+02  1.39849000E+02  4.51413000E+01  1.68733000E+01  2.77152000E+00
  6.74110000E+00  2.77152000E+00  1.02387000E+00  3.81368000E-01  1.09437000E-01
  7.50000000E-01
Contraction coefficients                   R   N=         126
  1.96665025E-03  1.52306019E-02  7.61269097E-02  2.60801033E-01  6.16462078E-01
  2.21006028E-01  1.14660081E-01  9.19999648E-01 -3.03068213E-03  1.00000000E+00
  1.00000000E+00  1.00000000E+00  1.00000000E+00  1.96665025E-03  1.52306019E-02
  7.61269097E-02  2.60801033E-01  6.16462078E-01  2.21006028E-01  1.14660081E-01
  9.19999648E-01 -3.03068213E-03  1.00000000E+00  1.00000000E+00  1.00000000E+00
  1.00000000E+00  1.96665025E-03  1.52306019E-02  7.61269097E-02  2.60801033E-01
  6.16462078E-01  2.21006028E-01  1.14660081E-01  9.19999648E-01 -3.03068213E-03
  1.00000000E+00  1.00000000E+00  1.00000000E+00  1.00000000E+00  1.96665025E-03
  1.52306019E-02  7.61269097E-02  2.60801033E-01  6.16462078E-01  2.21006028E-01
  1.14660081E-01  9.19999648E-01 -3.03068213E-03  1.00000000E+00  1.00000000E+00
  1.00000000E+00  1.00000000E+00  2.54938145E-02  1.90373109E-01  8.52161486E-01
  1.00000000E+00  1.00000000E+00  1.00000000E+00  1.00000000E+00  2.54938145E-02
  1.90373109E-01  8.52161486E-01  1.00000000E+00  1.00000000E+00  1.00000000E+00
  1.00000000E+00  2.54938145E-02  1.90373109E-01  8.52161486E-01  1.00000000E+00
  1.00000000E+00  1.00000000E+00  1.00000000E+00  2.54938145E-02  1.90373109E-01
  8.52161486E-01  1.00000000E+00  1.00000000E+00  1.00000000E+00  1.00000000E+00
  2.54938145E-02  1.90373109E-01  8.52161486E-01  1.00000000E+00  1.00000000E+00
  1.00000000E+00  1.00000000E+00  2.54938145E-02  1.90373109E-01  8.52161486E-01
  1.00000000E+00  1.00000000E+00  1.00000000E+00  1.00000000E+00  2.54938145E-02
  1.90373109E-01  8.52161486E-01  1.00000000E+00  1.00000000E+00  1.00000000E+00
  1.00000000E+00  7.38000247E-04  5.71800191E-03  2.94950099E-02  1.17286039E-01
  3.62949121E-01  5.84149195E-01  1.34176973E-01  6.24249876E-01  2.91755942E-01
  1.00000000E+00  1.00000000E+00  1.00000000E+00  1.00000000E+00  1.00000000E+00
  3.66556935E-03  2.83679194E-02  1.24756603E-01  3.39654631E-01  7.47585963E-01
 -1.57224381E+00  9.92388882E-01  1.00000000E+00  1.00000000E+00  1.00000000E+00
  1.00000000E+00
P(S=P) Contraction coefficients            R   N=         126
  0.00000000E+00  0.00000000E+00  0.00000000E+00  0.00000000E+00  0.00000000E+00
  0.00000000E+00  4.02486927E-02  2.37593957E-01  8.15853851E-01  1.00000000E+00
  1.00000000E+00  1.00000000E+00  0.00000000E+00  0.00000000E+00  0.00000000E+00
  0.00000000E+00  0.00000000E+00  0.00000000E+00  0.00000000E+00  4.02486927E-02
  2.37593957E-01  8.15853851E-01  1.00000000E+00  1.00000000E+00  1.00000000E+00
  0.00000000E+00  0.00000000E+00  0.00000000E+00  0.00000000E+00  0.00000000E+00
  0.00000000E+00  0.00000000E+00  4.02486927E-02  2.37593957E-01  8.15853851E-01
  1.00000000E+00  1.00000000E+00  1.00000000E+00  0.00000000E+00  0.00000000E+00
  0.00000000E+00  0.00000000E+00  0.00000000E+00  0.00000000E+00  0.00000000E+00
  4.02486927E-02  2.37593957E-01  8.15853851E-01  1.00000000E+00  1.00000000E+00
  1.00000000E+00  0.00000000E+00  0.00000000E+00  0.00000000E+00  0.00000000E+00
  0.00000000E+00  0.00000000E+00  0.00000000E+00  0.00000000E+00  0.00000000E+00
  0.00000000E+00  0.00000000E+00  0.00000000E+00  0.00000000E+00  0.00000000E+00
  0.00000000E+00  0.00000000E+00  0.00000000E+00  0.00000000E+00  0.00000000E+00
  0.00000000E+00  0.00000000E+00  0.00000000E+00  0.00000000E+00  0.00000000E+00
  0.00000000E+00  0.00000000E+00  0.00000000E+00  0.00000000E+00  0.00000000E+00
  0.00000000E+00  0.00000000E+00  0.00000000E+00  0.00000000E+00  0.00000000E+00
  0.00000000E+00  0.00000000E+00  0.00000000E+00  0.00000000E+00  0.00000000E+00
  0.00000000E+00  0.00000000E+00  0.00000000E+00  0.00000000E+00  0.00000000E+00
  0.00000000E+00  0.00000000E+00  0.00000000E+00  0.00000000E+00  0.00000000E+00
  0.00000000E+00  0.00000000E+00  0.00000000E+00  0.00000000E+00  0.00000000E+00
  0.00000000E+00  0.00000000E+00  0.00000000E+00  0.00000000E+00  0.00000000E+00
  0.00000000E+00  0.00000000E+00  0.00000000E+00  0.00000000E+00  1.00000000E+00
  0.00000000E+00  0.00000000E+00  0.00000000E+00  0.00000000E+00  0.00000000E+00
  0.00000000E+00  0.00000000E+00  0.00000000E+00  0.00000000E+00  0.00000000E+00
  0.00000000E+00
Coordinates of each shell                  R   N=         216
  8.89137989E-01  3.31415782E+00  7.76296480E-02  8.89137989E-01  3.31415782E+00
  7.76296480E-02  8.89137989E-01  3.31415782E+00  7.76296480E-02  8.89137989E-01
  3.31415782E+00  7.76296480E-02  8.89137989E-01  3.31415782E+00  7.76296480E-02
  8.89137989E-01  3.31415782E+00  7.76296480E-02  1.19338076E-02  6.61980149E-01
 -6.05022220E-01  1.19338076E-02  6.61980149E-01 -6.05022220E-01  1.19338076E-02
  6.61980149E-01 -6.05022220E-01  1.19338076E-02  6.61980149E-01 -6.05022220E-01
  1.19338076E-02  6.61980149E-01 -6.05022220E-01  1.19338076E-02  6.61980149E-01
 -6.05022220E-01 -2.27679155E+00 -1.88353373E-01  8.06160117E-01 -2.27679155E+00
 -1.88353373E-01  8.06160117E-01 -2.27679155E+00 -1.88353373E-01  8.06160117E-01
 -2.27679155E+00 -1.88353373E-01  8.06160117E-01 -2.27679155E+00 -1.88353373E-01
  8.06160117E-01 -2.27679155E+00 -1.88353373E-01  8.06160117E-01 -4.40474956E+00
 -9.51392333E-01 -2.94003515E-01 -4.40474956E+00 -9.51392333E-01 -2.94003515E-01
 -4.40474956E+00 -9.51392333E-01 -2.94003515E-01 -4.40474956E+00 -9.51392333E-01
 -2.94003515E-01 -4.40474956E+00 -9.51392333E-01 -2.94003515E-01 -4.40474956E+00
 -9.51392333E-01 -2.94003515E-01 -4.58481092E+00 -1.05295336E+00 -2.33051749E+00
 -4.58481092E+00 -1.05295336E+00 -2.33051749E+00 -4.58481092E+00 -1.05295336E+00
 -2.33051749E+00 -4.58481092E+00 -1.05295336E+00 -2.33051749E+00 -4.58481092E+00
 -1.05295336E+00 -2.33051749E+00  2.52917403E+00  3.80834352E+00 -9.22991886E-01
  2.52917403E+00  3.80834352E+00 -9.22991886E-01  2.52917403E+00  3.80834352E+00
 -9.22991886E-01  2.52917403E+00  3.80834352E+00 -9.22991886E-01  2.52917403E+00
  3.80834352E+00 -9.22991886E-01 -6.03636540E+00 -1.50405422E+00  8.05841774E-01
 -6.03636540E+00 -1.50405422E+00  8.05841774E-01 -6.03636540E+00 -1.50405422E+00
  8.05841774E-01 -6.03636540E+00 -1.50405422E+00  8.05841774E-01 -6.03636540E+00
 -1.50405422E+00  8.05841774E-01 -2.12972421E+00 -1.20140963E-01  2.87217954E+00
 -2.12972421E+00 -1.20140963E-01  2.87217954E+00 -2.12972421E+00 -1.20140963E-01
  2.87217954E+00 -2.12972421E+00 -1.20140963E-01  2.87217954E+00 -2.12972421E+00
 -1.20140963E-01  2.87217954E+00 -3.05153404E-01  4.78377630E-01 -2.72362446E+00
 -3.05153404E-01  4.78377630E-01 -2.72362446E+00 -3.05153404E-01  4.78377630E-01
 -2.72362446E+00 -3.05153404E-01  4.78377630E-01 -2.72362446E+00 -3.05153404E-01
  4.78377630E-01 -2.72362446E+00  1.26474317E+00  3.46065061E+00  2.06086268E+00
  1.26474317E+00  3.46065061E+00  2.06086268E+00  1.26474317E+00  3.46065061E+00
  2.06086268E+00  1.26474317E+00  3.46065061E+00  2.06086268E+00  1.26474317E+00
  3.46065061E+00  2.06086268E+00 -6.65534050E-01  4.71364035E+00 -4.19367909E-01
 -6.65534050E-01  4.71364035E+00 -4.19367909E-01 -6.65534050E-01  4.71364035E+00
 -4.19367909E-01 -6.65534050E-01  4.71364035E+00 -4.19367909E-01 -6.65534050E-01
  4.71364035E+00 -4.19367909E-01  2.62414628E+00 -1.57660101E+00  4.40607986E-02
  2.62414628E+00 -1.57660101E+00  4.40607986E-02  2.62414628E+00 -1.57660101E+00
  4.40607986E-02  2.62414628E+00 -1.57660101E+00  4.40607986E-02  2.62414628E+00
 -1.57660101E+00  4.40607986E-02  2.62414628E+00 -1.57660101E+00  4.40607986E-02
  2.62414628E+00 -1.57660101E+00  4.40607986E-02  2.62414628E+00 -1.57660101E+00
  4.40607986E-02  2.62414628E+00 -1.57660101E+00  4.40607986E-02  2.62414628E+00
 -1.57660101E+00  4.40607986E-02  2.62414628E+00 -1.57660101E+00  4.40607986E-02
  2.62414628E+00 -1.57660101E+00  4.40607986E-02  2.62414628E+00 -1.57660101E+00
  4.40607986E-02
Constraint Structure                       R   N=          36
  8.89137989E-01  3.31415782E+00  7.76296480E-02  1.19338076E-02  6.61980149E-01
 -6.05022220E-01 -2.27679155E+00 -1.88353373E-01  8.06160117E-01 -4.40474956E+00
 -9.51392333E-01 -2.94003515E-01 -4.58481092E+00 -1.05295336E+00 -2.33051749E+00
  2.52917403E+00  3.80834352E+00 -9.22991886E-01 -6.03636540E+00 -1.50405422E+00
  8.05841774E-01 -2.12972421E+00 -1.20140963E-01  2.87217954E+00 -3.05153404E-01
  4.78377630E-01 -2.72362446E+00  1.26474317E+00  3.46065061E+00  2.06086268E+00
 -6.65534050E-01  4.71364035E+00 -4.19367909E-01  2.62414628E+00 -1.57660101E+00
  4.40607986E-02
Num ILSW                                   I              100
ILSW                                       I   N=         100
           0           0           0           0           2           0
           0           0           0           0         402          -1
           5           0           0           0           0           0
           0           0           0           0           0           0
           1           0           0           0           0           0
           0           0      100000           0          -1           0
           0           0           0           0           0           0
           0           0           0           1           0           0
           0           0           1           0           0           0
           0           0           4          41           0           0
           0           0           5           0           0           0
           0           0           0           0           0           0
           0           0           0           0           0           0
           0           0           0           0           0           0
           0           0           0           0           0           0
           0           0           0           0           0           0
           0           0           0           0
Num RLSW                                   I               41
RLSW                                       R   N=          41
  8.00000000E-01  7.20000000E-01  1.00000000E+00  8.10000000E-01  2.00000000E-01
  0.00000000E+00  0.00000000E+00  1.00000000E+00  0.00000000E+00  0.00000000E+00
  0.00000000E+00  0.00000000E+00  1.00000000E+00  0.00000000E+00  0.00000000E+00
  0.00000000E+00  0.00000000E+00  1.00000000E+00  0.00000000E+00  0.00000000E+00
  0.00000000E+00  0.00000000E+00  1.00000000E+00  0.00000000E+00  0.00000000E+00
  0.00000000E+00  0.00000000E+00  1.00000000E+00  0.00000000E+00  0.00000000E+00
  0.00000000E+00  0.00000000E+00  0.00000000E+00  0.00000000E+00  0.00000000E+00
  0.00000000E+00  0.00000000E+00  0.00000000E+00  1.00000000E+00  1.00000000E+00
  0.00000000E+00
MxBond                                     I                4
NBond                                      I   N=          12
           4           4           3           3           1           1
           1           1           1           1           1           1
IBond                                      I   N=          48
           2           6          10          11           1           3
           9          12           2           4           8           0
           3           5           7           0           4           0
           0           0           1           0           0           0
           4           0           0           0           3           0
           0           0           2           0           0           0
           1           0           0           0           1           0
           0           0           2           0           0           0
RBond                                      R   N=          48
  1.00000000E+00  1.00000000E+00  1.00000000E+00  1.00000000E+00  1.00000000E+00
  1.00000000E+00  1.00000000E+00  1.00000000E+00  1.00000000E+00  2.00000000E+00
  1.00000000E+00  0.00000000E+00  2.00000000E+00  1.00000000E+00  1.00000000E+00
  0.00000000E+00  1.00000000E+00  0.00000000E+00  0.00000000E+00  0.00000000E+00
  1.00000000E+00  0.00000000E+00  0.00000000E+00  0.00000000E+00  1.00000000E+00
  0.00000000E+00  0.00000000E+00  0.00000000E+00  1.00000000E+00  0.00000000E+00
  0.00000000E+00  0.00000000E+00  1.00000000E+00  0.00000000E+00  0.00000000E+00
  0.00000000E+00  1.00000000E+00  0.00000000E+00  0.00000000E+00  0.00000000E+00
  1.00000000E+00  0.00000000E+00  0.00000000E+00  0.00000000E+00  1.00000000E+00
  0.00000000E+00  0.00000000E+00  0.00000000E+00
Virial Ratio                               R      2.003094657314836E+00
SCF Energy                                 R     -6.168920129966464E+02
Total Energy                               R     -6.168920129966464E+02
RMS Density                                R      4.490643975481834E-12
Nuclear derivative order                   I                0
External E-field                           R   N=          35
  0.00000000E+00  0.00000000E+00  0.00000000E+00  0.00000000E+00  0.00000000E+00
  0.00000000E+00  0.00000000E+00  0.00000000E+00  0.00000000E+00  0.00000000E+00
  0.00000000E+00  0.00000000E+00  0.00000000E+00  0.00000000E+00  0.00000000E+00
  0.00000000E+00  0.00000000E+00  0.00000000E+00  0.00000000E+00  0.00000000E+00
  0.00000000E+00  0.00000000E+00  0.00000000E+00  0.00000000E+00  0.00000000E+00
  0.00000000E+00  0.00000000E+00  0.00000000E+00  0.00000000E+00  0.00000000E+00
  0.00000000E+00  0.00000000E+00  0.00000000E+00  0.00000000E+00  0.00000000E+00
IOpCl                                      I                0
IROHF                                      I                0
Alpha Orbital Energies                     R   N=         167
 -1.01534589E+02 -1.02516748E+01 -1.01948458E+01 -1.01834828E+01 -1.01795944E+01
 -9.44901281E+00 -7.21335492E+00 -7.20391930E+00 -7.20377497E+00 -8.67046160E-01
 -7.87019480E-01 -7.43299576E-01 -6.40299273E-01 -5.73333752E-01 -4.84899187E-01
 -4.75981786E-01 -4.44956119E-01 -4.16026602E-01 -4.06044208E-01 -3.72846149E-01
 -3.67024845E-01 -3.06051567E-01 -2.98338591E-01 -2.80577583E-01 -3.25308008E-02
 -7.79315693E-03  5.80322452E-03  6.53860170E-03  2.18931947E-02  2.84776703E-02
  3.86742164E-02  4.09220507E-02  6.32556264E-02  6.46154993E-02  7.31938279E-02
  8.33316727E-02  8.75079973E-02  9.82259621E-02  1.10720001E-01  1.15591603E-01
  1.17655026E-01  1.21581791E-01  1.27832527E-01  1.29998278E-01  1.34925739E-01
  1.41457010E-01  1.49474823E-01  1.56212103E-01  1.60476897E-01  1.63342246E-01
  1.71795369E-01  1.89385297E-01  1.92565064E-01  2.10430048E-01  2.21281209E-01
  2.25907372E-01  2.48505133E-01  2.61414359E-01  2.67771912E-01  2.93118646E-01
  3.40309246E-01  3.56429995E-01  3.90241233E-01  4.24821674E-01  4.29588174E-01
  4.47393035E-01  4.59549297E-01  4.77313443E-01  4.87353845E-01  4.95261474E-01
  5.26095908E-01  5.29334492E-01  5.65818031E-01  5.87909275E-01  5.98901878E-01
  6.18371159E-01  6.31847119E-01  6.48110643E-01  6.53075667E-01  6.66087904E-01
  6.86670127E-01  6.97498916E-01  7.38201639E-01  7.42424955E-01  7.85911155E-01
  8.20355829E-01  8.30932645E-01  8.62912464E-01  8.91615093E-01  9.02090607E-01
  9.43511386E-01  9.59998873E-01  1.00572597E+00  1.03151069E+00  1.06435311E+00
  1.08322073E+00  1.12545640E+00  1.17529675E+00  1.19659500E+00  1.29215353E+00
  1.39013629E+00  1.43014987E+00  1.45446778E+00  1.46788740E+00  1.50854860E+00
  1.54180212E+00  1.56183946E+00  1.57553920E+00  1.60402852E+00  1.62382108E+00
  1.67049153E+00  1.69360786E+00  1.70016596E+00  1.71807496E+00  1.76542515E+00
  1.78432278E+00  1.86349270E+00  1.88432657E+00  1.93032355E+00  1.97153019E+00
  2.01503471E+00  2.07020078E+00  2.11642913E+00  2.17243483E+00  2.19231599E+00
  2.19746035E+00  2.24230785E+00  2.30198165E+00  2.30359590E+00  2.34773756E+00
  2.36856228E+00  2.44036177E+00  2.46692780E+00  2.48720291E+00  2.53264658E+00
  2.55323831E+00  2.58032921E+00  2.58873050E+00  2.62522345E+00  2.63857751E+00
  2.72498206E+00  2.73569878E+00  2.75120321E+00  2.78346898E+00  2.85548829E+00
  2.86945500E+00  2.93079122E+00  3.07733495E+00  3.08373332E+00  3.17969549E+00
  3.39575919E+00  3.50540765E+00  3.71708309E+00  3.76570597E+00  3.85286981E+00
  3.92237927E+00  4.09702496E+00  4.28829975E+00  9.75589532E+00  2.36957519E+01
  2.37738791E+01  2.39696876E+01  2.42547020E+01  2.59294201E+01  2.59738162E+01
  2.64451959E+01  2.15745801E+02
Alpha MO coefficients                      R   N=       27889
  4.22071889E-07 -1.05390650E-06 -2.75561835E-06 -2.13357524E-06 -1.15418976E-06
  5.92774103E-06  2.28728757E-05  1.68899807E-05  8.28985238E-06  2.38399273E-05
  3.65829518E-05  2.77303534E-05  2.37597270E-05 -1.66581400E-03 -1.49493887E-04
  4.92848348E-04  4.02741788E-05  7.51904451E-06 -3.63005759E-06 -5.02371329E-06
  1.43014772E-05  3.76430122E-07  1.38386582E-06 -2.80938208E-06  1.22834559E-05
 -1.20134515E-05  5.10333048E-06 -1.70103706E-05 -1.39338108E-05  1.99150655E-05
 -1.55763318E-05  1.57388619E-04  1.31637192E-04 -1.23377319E-04 -5.58499974E-06
  3.66984179E-03 -4.77987114E-04  4.56576967E-04  8.18608887E-04  8.12227576E-06
 -1.89437125E-06  3.09891578E-06 -2.77125325E-06  7.99697691E-06 -6.23948879E-07
  1.81646638E-06  4.21060540E-06 -2.53900321E-06 -4.20442232E-06 -8.74989845E-06
 -2.48922870E-05  9.66172876E-06  2.47993842E-05  2.50592920E-05  1.52157064E-05
 -9.48095258E-06 -6.34717471E-05 -1.06572762E-03 -1.21679348E-03 -3.92997660E-04
 -1.16029677E-04  6.43503428E-06  6.09848381E-06 -5.91935556E-06  8.38465276E-07
 -4.22711865E-06  3.22011636E-07 -9.58256334E-07 -1.74539758E-06  6.89611722E-07
  7.44513494E-07  9.89274752E-06  8.05075799E-06 -2.61299291E-06  1.41552313E-06
 -5.85945415E-05 -8.65042123E-05 -2.03993602E-05  6.35227975E-05 -1.70467766E-03
 -3.44530292E-04 -1.82328563E-04 -1.26664291E-04 -4.94626269E-06 -1.97717560E-06
 -3.66224906E-06 -1.83738924E-06 -1.71583305E-06 -3.13004544E-06  3.53660562E-05
  6.12355569E-05  4.57381288E-05  6.72385558E-06 -2.80343085E-08  6.39889530E-06
  1.14904462E-05 -9.06418726E-05  7.97994404E-05  2.35051287E-04  9.78453442E-06
  1.40035715E-05 -1.25365789E-05  2.36358480E-06 -2.19650397E-05 -5.09398915E-05
 -1.28399550E-04 -1.01677133E-06 -2.96982240E-07  1.26065885E-06  5.91331768E-06
 -3.41898318E-05  6.37034663E-05  1.47641604E-04 -1.10374656E-05  1.80115542E-06
  1.32150423E-05  9.17539752E-08 -5.59454996E-05 -1.09246753E-04  1.16374012E-04
 -6.96576433E-06  2.42265745E-06 -1.46750320E-05  1.00401660E-05 -6.71889976E-05
 -2.30957078E-05  7.14010035E-05 -4.79779750E-06  1.25011990E-05  1.61322919E-05
 -7.61846894E-06  3.59556451E-05 -1.32965834E-04 -2.88973162E-04  8.70464321E-08
 -4.50184224E-06 -8.02291495E-07  4.11609655E-01  6.54076180E-01  1.50039678E-02