 Entering Gaussian System, Link 0=g09
 Input=input.dat
 Output=output.dat
 Initial command:
 /cerebro/home/software/apps/g09/l1.exe /scratch/crawdad/Gau-7633.inp -scrdir=/scratch/crawdad/
 Entering Link 1 = /cerebro/home/software/apps/g09/l1.exe PID=      7635.
  
 Copyright (c) 1988,1990,1992,1993,1995,1998,2003,2009, Gaussian, Inc.
                  All Rights Reserved.
  
 This is part of the Gaussian(R) 09 program.  It is based on
 the Gaussian(R) 03 system (copyright 2003, Gaussian, Inc.),
 the Gaussian(R) 98 system (copyright 1998, Gaussian, Inc.),
 the Gaussian(R) 94 system (copyright 1995, Gaussian, Inc.),
 the Gaussian 92(TM) system (copyright 1992, Gaussian, Inc.),
 the Gaussian 90(TM) system (copyright 1990, Gaussian, Inc.),
 the Gaussian 88(TM) system (copyright 1988, Gaussian, Inc.),
 the Gaussian 86(TM) system (copyright 1986, Carnegie Mellon
 University), and the Gaussian 82(TM) system (copyright 1983,
 Carnegie Mellon University). Gaussian is a federally registered
 trademark of Gaussian, Inc.
  
 This software contains proprietary and confidential information,
 including trade secrets, belonging to Gaussian, Inc.
  
 This software is provided under written license and may be
 used, copied, transmitted, or stored only in accord with that
 written license.
  
 The following legend is applicable only to US Government
 contracts under FAR:
  
                    RESTRICTED RIGHTS LEGEND
  
 Use, reproduction and disclosure by the US Government is
 subject to restrictions as set forth in subparagraphs (a)
 and (c) of the Commercial Computer Software - Restricted
 Rights clause in FAR 52.227-19.
  
 Gaussian, Inc.
 340 Quinnipiac St., Bldg. 40, Wallingford CT 06492
  
  
 ---------------------------------------------------------------
 Warning -- This program may not be used in any manner that
 competes with the business of Gaussian, Inc. or will provide
 assistance to any competitor of Gaussian, Inc.  The licensee
 of this program is prohibited from giving any competitor of
 Gaussian, Inc. access to this program.  By using this program,
 the user acknowledges that Gaussian, Inc. is engaged in the
 business of creating and licensing software in the field of
 computational chemistry and represents and warrants to the
 licensee that it is not a competitor of Gaussian, Inc. and that
 it will not use this program in any manner prohibited above.
 ---------------------------------------------------------------
  

 Cite this work as:
 Gaussian 09, Revision A.02,
 M. J. Frisch, G. W. Trucks, H. B. Schlegel, G. E. Scuseria, 
 M. A. Robb, J. R. Cheeseman, G. Scalmani, V. Barone, B. Mennucci, 
 G. A. Petersson, H. Nakatsuji, M. Caricato, X. Li, H. P. Hratchian, 
 A. F. Izmaylov, J. Bloino, G. Zheng, J. L. Sonnenberg, M. Hada, 
 M. Ehara, K. Toyota, R. Fukuda, J. Hasegawa, M. Ishida, T. Nakajima, 
 Y. Honda, O. Kitao, H. Nakai, T. Vreven, J. A. Montgomery, Jr., 
 J. E. Peralta, F. Ogliaro, M. Bearpark, J. J. Heyd, E. Brothers, 
 K. N. Kudin, V. N. Staroverov, R. Kobayashi, J. Normand, 
 K. Raghavachari, A. Rendell, J. C. Burant, S. S. Iyengar, J. Tomasi, 
 M. Cossi, N. Rega, J. M. Millam, M. Klene, J. E. Knox, J. B. Cross, 
 V. Bakken, C. Adamo, J. Jaramillo, R. Gomperts, R. E. Stratmann, 
 O. Yazyev, A. J. Austin, R. Cammi, C. Pomelli, J. W. Ochterski, 
 R. L. Martin, K. Morokuma, V. G. Zakrzewski, G. A. Voth, 
 P. Salvador, J. J. Dannenberg, S. Dapprich, A. D. Daniels, 
 O. Farkas, J. B. Foresman, J. V. Ortiz, J. Cioslowski, 
 and D. J. Fox, Gaussian, Inc., Wallingford CT, 2009.
 
 ******************************************
 Gaussian 09:  EM64L-G09RevA.02 11-Jun-2009
                10-Jul-2013 
 ******************************************
 %chk=vibave
 %mem=1000mb
 %nproc=1
 Will use up to    1 processors via shared memory.
 ----------------------------------------------------------------------
 #P B3LYP/6-311++G** scf(conver=11) int=ultrafine polar=optrot cphf(rdf
 req,conver=11)
 ----------------------------------------------------------------------
 1/38=1,83=21/1;
 2/12=2,17=6,18=5,40=1/2;
 3/5=4,6=6,7=1111,11=2,16=1,25=1,30=1,36=2,74=-5,75=-5/1,2,3;
 4//1;
 5/5=2,6=11,38=5,96=-2,98=1/2;
 8/6=4,10=90,11=11/1;
 10/6=1,7=11,13=10,46=8,60=-2,72=3/2;
 6/7=2,8=2,9=2,10=2,28=1/1;
 99/5=1,9=1/99;
 Leave Link    1 at Wed Jul 10 17:11:09 2013, MaxMem=  131072000 cpu:       0.1
 (Enter /cerebro/home/software/apps/g09/l101.exe)
 -----------------------------
 (R)-3-chloro-1-butene tau=120
 -----------------------------
 Symbolic Z-matrix:
 Charge =  0 Multiplicity = 1
 C                     0.46873   1.75393   0.04039 
 C                     0.00613   0.35022  -0.32344 
 C                    -1.20491  -0.09645   0.43282 
 C                    -2.33337  -0.49826  -0.15766 
 H                    -2.42647  -0.55064  -1.21566 
 H                     1.37508   2.02203  -0.50978 
 H                    -3.19584  -0.7881    0.42531 
 H                    -1.13334  -0.06339   1.44226 
 H                    -0.15686   0.25684  -1.40853 
 H                     0.67448   1.83107   1.10496 
 H                    -0.32021   2.47041  -0.21338 
 Cl                    1.38605  -0.83737   0.02288 
 
 NAtoms=     12 NQM=     12 NQMF=      0 NMic=      0 NMicF=      0 NTot=     12.
                    Isotopes and Nuclear Properties:
 (Nuclear quadrupole moments (NQMom) in fm**2, nuclear magnetic moments (NMagM)
  in nuclear magnetons)

  Atom         1           2           3           4           5           6           7           8           9          10
 IAtWgt=          12          12          12          12           1           1           1           1           1           1
 AtmWgt=  12.0000000  12.0000000  12.0000000  12.0000000   1.0078250   1.0078250   1.0078250   1.0078250   1.0078250   1.0078250
 NucSpn=           0           0           0           0           1           1           1           1           1           1
 AtZEff=   0.0000000   0.0000000   0.0000000   0.0000000   0.0000000   0.0000000   0.0000000   0.0000000   0.0000000   0.0000000
 NQMom=    0.0000000   0.0000000   0.0000000   0.0000000   0.0000000   0.0000000   0.0000000   0.0000000   0.0000000   0.0000000
 NMagM=    0.0000000   0.0000000   0.0000000   0.0000000   2.7928460   2.7928460   2.7928460   2.7928460   2.7928460   2.7928460

  Atom        11          12
 IAtWgt=           1          35
 AtmWgt=   1.0078250  34.9688527
 NucSpn=           1           3
 AtZEff=   0.0000000   0.0000000
 NQMom=    0.0000000  -8.1650000
 NMagM=    2.7928460   0.8218740
 Using perturbation frequencies:    0.071980    0.077357    0.104503    0.128347
 Leave Link  101 at Wed Jul 10 17:11:10 2013, MaxMem=  131072000 cpu:       0.2
 (Enter /cerebro/home/software/apps/g09/l202.exe)
                          Input orientation:                          
 ---------------------------------------------------------------------
 Center     Atomic      Atomic             Coordinates (Angstroms)
 Number     Number       Type             X           Y           Z
 ---------------------------------------------------------------------
      1          6           0        0.468726    1.753930    0.040394
      2          6           0        0.006126    0.350217   -0.323436
      3          6           0       -1.204913   -0.096450    0.432824
      4          6           0       -2.333374   -0.498258   -0.157656
      5          1           0       -2.426465   -0.550636   -1.215660
      6          1           0        1.375083    2.022030   -0.509775
      7          1           0       -3.195836   -0.788103    0.425310
      8          1           0       -1.133338   -0.063388    1.442263
      9          1           0       -0.156862    0.256841   -1.408532
     10          1           0        0.674480    1.831072    1.104956
     11          1           0       -0.320207    2.470405   -0.213382
     12         17           0        1.386048   -0.837366    0.022876
 ---------------------------------------------------------------------
                    Distance matrix (angstroms):
                    1          2          3          4          5
     1  C    0.000000
     2  C    1.522097   0.000000
     3  C    2.525663   1.496013   0.000000
     4  C    3.600463   2.494124   1.335493   0.000000
     5  H    3.907790   2.743192   2.101422   1.063383   0.000000
     6  H    1.093640   2.168807   3.468837   4.497610   4.644207
     7  H    4.476506   3.479792   2.107656   1.080602   1.827869
     8  H    2.799016   2.141761   1.012513   2.046689   2.995687
     9  H    2.175321   1.101235   2.147979   2.621463   2.416674
    10  H    1.087004   2.163315   2.774747   4.008385   4.546829
    11  H    1.095515   2.147976   2.790884   3.587326   3.816749
    12  Cl   2.748928   1.853233   2.725820   3.739210   4.018887
                    6          7          8          9         10
     6  H    0.000000
     7  H    5.446516   0.000000
     8  H    3.801526   2.411079   0.000000
     9  H    2.504100   3.700033   3.030360   0.000000
    10  H    1.770499   4.722429   2.640258   3.080090   0.000000
    11  H    1.778454   4.392612   3.134079   2.520899   1.770922
    12  Cl   2.908605   4.599787   2.993494   2.372086   2.966106
                   11         12
    11  H    0.000000
    12  Cl   3.729407   0.000000
 Stoichiometry    C4H7Cl
 Framework group  C1[X(C4H7Cl)]
 Deg. of freedom    30
 Full point group                 C1      NOp   1
 Largest Abelian subgroup         C1      NOp   1
 Largest concise Abelian subgroup C1      NOp   1
                         Standard orientation:                         
 ---------------------------------------------------------------------
 Center     Atomic      Atomic             Coordinates (Angstroms)
 Number     Number       Type             X           Y           Z
 ---------------------------------------------------------------------
      1          6           0       -0.468693    1.753952   -0.041085
      2          6           0       -0.006135    0.350225    0.322745
      3          6           0        1.204891   -0.096478   -0.433515
      4          6           0        2.333340   -0.498319    0.156965
      5          1           0        2.426430   -0.550700    1.214969
      6          1           0       -1.375043    2.022078    0.509084
      7          1           0        3.195793   -0.788190   -0.426001
      8          1           0        1.133317   -0.063414   -1.442954
      9          1           0        0.156851    0.256844    1.407841
     10          1           0       -0.674445    1.831099   -1.105647
     11          1           0        0.320261    2.470403    0.212691
     12         17           0       -1.386093   -0.837318   -0.023567
 ---------------------------------------------------------------------
 Rotational constants (GHZ):      5.5688835      2.7479276      2.0024528
 Leave Link  202 at Wed Jul 10 17:11:10 2013, MaxMem=  131072000 cpu:       0.0
 (Enter /cerebro/home/software/apps/g09/l301.exe)
 Standard basis: 6-311++G(d,p) (5D, 7F)
 Ernie: Thresh=  0.10000D-02 Tol=  0.10000D-05 Strict=F.
 There are   167 symmetry adapted basis functions of A   symmetry.
 Integral buffers will be    131072 words long.
 Raffenetti 2 integral format.
 Two-electron integral symmetry is turned on.
   167 basis functions,   260 primitive gaussians,   172 cartesian basis functions
    24 alpha electrons       24 beta electrons
       nuclear repulsion energy       212.0133373584 Hartrees.
 IExCor=  402 DFT=T Ex+Corr=B3LYP ExCW=0 ScaHFX=  0.200000
 ScaDFX=  0.800000  0.720000  1.000000  0.810000 ScalE2=  1.000000  1.000000
 IRadAn=      5 IRanWt=     -1 IRanGd=            0 ICorTp=0
 NAtoms=   12 NActive=   12 NUniq=   12 SFac= 7.50D-01 NAtFMM=   80 NAOKFM=F Big=F
 Leave Link  301 at Wed Jul 10 17:11:10 2013, MaxMem=  131072000 cpu:       0.1
 (Enter /cerebro/home/software/apps/g09/l302.exe)
 NPDir=0 NMtPBC=     1 NCelOv=     1 NCel=       1 NClECP=     1 NCelD=      1
         NCelK=      1 NCelE2=     1 NClLst=     1 CellRange=     0.0.
 One-electron integrals computed using PRISM.
 NBasis=   167 RedAO= T  NBF=   167
 NBsUse=   167 1.00D-06 NBFU=   167
 Precomputing XC quadrature grid using
 IXCGrd= 2 IRadAn=           5 IRanWt=          -1 IRanGd=           0 AccXCQ= 1.00D-10.
 NRdTot=    1019 NPtTot=      274288 NUsed=      281590 NTot=      281622
 NSgBfM=   172   172   172   172   172 NAtAll=    12    12.
 Leave Link  302 at Wed Jul 10 17:11:11 2013, MaxMem=  131072000 cpu:       0.7
 (Enter /cerebro/home/software/apps/g09/l303.exe)
 DipDrv:  MaxL=2.
 Leave Link  303 at Wed Jul 10 17:11:11 2013, MaxMem=  131072000 cpu:       0.1
 (Enter /cerebro/home/software/apps/g09/l401.exe)
 Harris functional with IExCor=  402 diagonalized for initial guess.
 ExpMin= 3.60D-02 ExpMax= 1.06D+05 ExpMxC= 3.62D+03 IAcc=3 IRadAn=         5 AccDes= 0.00D+00
 HarFok:  IExCor=  402 AccDes= 0.00D+00 IRadAn=         5 IDoV= 1
 ScaDFX=  1.000000  1.000000  1.000000  1.000000
 FoFCou: FMM=F IPFlag=           0 FMFlag=      100000 FMFlg1=           0
         NFxFlg=           0 DoJE=T BraDBF=F KetDBF=T FulRan=T
         Omega=  0.000000  0.000000  1.000000  0.000000  0.000000 ICntrl=     500 IOpCl=  0
         NMat0=    1 NMatS0=    1 NMatT0=    0 NMatD0=    1 NMtDS0=    0 NMtDT0=    0
         I1Cent=           4 NGrid=           0.
 Petite list used in FoFCou.
 Harris En= -616.915484124966    
 Initial guess orbital symmetries:
       Occupied  (A) (A) (A) (A) (A) (A) (A) (A) (A) (A) (A) (A)
                 (A) (A) (A) (A) (A) (A) (A) (A) (A) (A) (A) (A)
       Virtual   (A) (A) (A) (A) (A) (A) (A) (A) (A) (A) (A) (A)
                 (A) (A) (A) (A) (A) (A) (A) (A) (A) (A) (A) (A)
                 (A) (A) (A) (A) (A) (A) (A) (A) (A) (A) (A) (A)
                 (A) (A) (A) (A) (A) (A) (A) (A) (A) (A) (A) (A)
                 (A) (A) (A) (A) (A) (A) (A) (A) (A) (A) (A) (A)
                 (A) (A) (A) (A) (A) (A) (A) (A) (A) (A) (A) (A)
                 (A) (A) (A) (A) (A) (A) (A) (A) (A) (A) (A) (A)
                 (A) (A) (A) (A) (A) (A) (A) (A) (A) (A) (A) (A)
                 (A) (A) (A) (A) (A) (A) (A) (A) (A) (A) (A) (A)
                 (A) (A) (A) (A) (A) (A) (A) (A) (A) (A) (A) (A)
                 (A) (A) (A) (A) (A) (A) (A) (A) (A) (A) (A) (A)
                 (A) (A) (A) (A) (A) (A) (A) (A) (A) (A) (A)
 The electronic state of the initial guess is 1-A.
 Leave Link  401 at Wed Jul 10 17:11:19 2013, MaxMem=  131072000 cpu:       7.5
 (Enter /cerebro/home/software/apps/g09/l502.exe)
 Closed shell SCF:
 Requested convergence on RMS density matrix=1.00D-11 within 128 cycles.
 Requested convergence on MAX density matrix=1.00D-09.
 Requested convergence on             energy=1.00D-09.
 No special actions if energy rises.
 Using DIIS extrapolation, IDIIS=  1040.
 Integral symmetry usage will be decided dynamically.
       281469 words used for storage of precomputed grid.
 Keep R1 ints in memory in canonical form, NReq=113664361.
 IEnd=      390694 IEndB=      390694 NGot=   131072000 MDV=    20042794
 LenX=    20042794 LenY=    20012769
 Symmetry not used in FoFDir.
 MinBra= 0 MaxBra= 2 Meth= 1.
 IRaf=       0 NMat=   1 IRICut=       1 DoRegI=T DoRafI=F ISym2E= 0 JSym2E=0.

 Cycle   1  Pass 1  IDiag  1:
 E= -616.716609250263    
 DIIS: error= 2.38D-02 at cycle   1 NSaved=   1.
 NSaved= 1 IEnMin= 1 EnMin= -616.716609250263     IErMin= 1 ErrMin= 2.38D-02
 ErrMax= 2.38D-02 EMaxC= 1.00D-01 BMatC= 2.07D-01 BMatP= 2.07D-01
 IDIUse=3 WtCom= 7.62D-01 WtEn= 2.38D-01
 Coeff-Com:  0.100D+01
 Coeff-En:   0.100D+01
 Coeff:      0.100D+01
 Gap=     0.403 Goal=   None    Shift=    0.000
 GapD=    0.403 DampG=2.000 DampE=0.500 DampFc=1.0000 IDamp=-1.
 RMSDP=6.39D-03 MaxDP=1.34D-01              OVMax= 2.23D-01

 Cycle   2  Pass 1  IDiag  1:
 E= -616.642590821326     Delta-E=        0.074018428938 Rises=F Damp=F
 DIIS: error= 2.83D-02 at cycle   2 NSaved=   2.
 NSaved= 2 IEnMin= 1 EnMin= -616.716609250263     IErMin= 1 ErrMin= 2.38D-02
 ErrMax= 2.83D-02 EMaxC= 1.00D-01 BMatC= 2.29D-01 BMatP= 2.07D-01
 IDIUse=2 WtCom= 0.00D+00 WtEn= 1.00D+00
 Coeff-En:   0.584D+00 0.416D+00
 Coeff:      0.584D+00 0.416D+00
 Gap=     0.269 Goal=   None    Shift=    0.000
 RMSDP=5.86D-03 MaxDP=1.61D-01 DE= 7.40D-02 OVMax= 1.15D-01

 Cycle   3  Pass 1  IDiag  1:
 E= -616.888938079313     Delta-E=       -0.246347257987 Rises=F Damp=F
 DIIS: error= 2.69D-03 at cycle   3 NSaved=   3.
 NSaved= 3 IEnMin= 3 EnMin= -616.888938079313     IErMin= 3 ErrMin= 2.69D-03
 ErrMax= 2.69D-03 EMaxC= 1.00D-01 BMatC= 2.40D-03 BMatP= 2.07D-01
 IDIUse=3 WtCom= 9.73D-01 WtEn= 2.69D-02
 Coeff-Com:  0.111D+00 0.647D-01 0.824D+00
 Coeff-En:   0.000D+00 0.000D+00 0.100D+01
 Coeff:      0.108D+00 0.629D-01 0.829D+00
 Gap=     0.249 Goal=   None    Shift=    0.000
 RMSDP=1.28D-03 MaxDP=4.10D-02 DE=-2.46D-01 OVMax= 2.12D-02

 Cycle   4  Pass 1  IDiag  1:
 E= -616.889202167702     Delta-E=       -0.000264088389 Rises=F Damp=F
 DIIS: error= 3.12D-03 at cycle   4 NSaved=   4.
 NSaved= 4 IEnMin= 4 EnMin= -616.889202167702     IErMin= 3 ErrMin= 2.69D-03
 ErrMax= 3.12D-03 EMaxC= 1.00D-01 BMatC= 2.13D-03 BMatP= 2.40D-03
 IDIUse=3 WtCom= 9.69D-01 WtEn= 3.12D-02
 Coeff-Com:  0.260D-01-0.133D-02 0.511D+00 0.464D+00
 Coeff-En:   0.000D+00 0.000D+00 0.472D+00 0.528D+00
 Coeff:      0.252D-01-0.129D-02 0.510D+00 0.466D+00
 Gap=     0.246 Goal=   None    Shift=    0.000
 RMSDP=5.15D-04 MaxDP=1.60D-02 DE=-2.64D-04 OVMax= 1.73D-02

 Cycle   5  Pass 1  IDiag  1:
 E= -616.891197704333     Delta-E=       -0.001995536631 Rises=F Damp=F
 DIIS: error= 5.59D-04 at cycle   5 NSaved=   5.
 NSaved= 5 IEnMin= 5 EnMin= -616.891197704333     IErMin= 5 ErrMin= 5.59D-04
 ErrMax= 5.59D-04 EMaxC= 1.00D-01 BMatC= 8.17D-05 BMatP= 2.13D-03
 IDIUse=3 WtCom= 9.94D-01 WtEn= 5.59D-03
 Coeff-Com:  0.800D-02-0.511D-02 0.221D+00 0.240D+00 0.536D+00
 Coeff-En:   0.000D+00 0.000D+00 0.000D+00 0.000D+00 0.100D+01
 Coeff:      0.796D-02-0.509D-02 0.220D+00 0.239D+00 0.539D+00
 Gap=     0.246 Goal=   None    Shift=    0.000
 RMSDP=1.04D-04 MaxDP=3.39D-03 DE=-2.00D-03 OVMax= 6.52D-03

 Cycle   6  Pass 1  IDiag  1:
 E= -616.891272914554     Delta-E=       -0.000075210221 Rises=F Damp=F
 DIIS: error= 2.43D-04 at cycle   6 NSaved=   6.
 NSaved= 6 IEnMin= 6 EnMin= -616.891272914554     IErMin= 6 ErrMin= 2.43D-04
 ErrMax= 2.43D-04 EMaxC= 1.00D-01 BMatC= 1.28D-05 BMatP= 8.17D-05
 IDIUse=3 WtCom= 9.98D-01 WtEn= 2.43D-03
 Coeff-Com:  0.103D-02-0.375D-02 0.674D-01 0.796D-01 0.313D+00 0.543D+00
 Coeff-En:   0.000D+00 0.000D+00 0.000D+00 0.000D+00 0.109D+00 0.891D+00
 Coeff:      0.102D-02-0.374D-02 0.672D-01 0.794D-01 0.312D+00 0.544D+00
 Gap=     0.246 Goal=   None    Shift=    0.000
 RMSDP=4.08D-05 MaxDP=1.27D-03 DE=-7.52D-05 OVMax= 1.83D-03

 Cycle   7  Pass 1  IDiag  1:
 E= -616.891285313197     Delta-E=       -0.000012398643 Rises=F Damp=F
 DIIS: error= 2.94D-05 at cycle   7 NSaved=   7.
 NSaved= 7 IEnMin= 7 EnMin= -616.891285313197     IErMin= 7 ErrMin= 2.94D-05
 ErrMax= 2.94D-05 EMaxC= 1.00D-01 BMatC= 3.15D-07 BMatP= 1.28D-05
 IDIUse=1 WtCom= 1.00D+00 WtEn= 0.00D+00
 Coeff-Com: -0.348D-04-0.148D-02 0.164D-01 0.199D-01 0.984D-01 0.225D+00
 Coeff-Com:  0.641D+00
 Coeff:     -0.348D-04-0.148D-02 0.164D-01 0.199D-01 0.984D-01 0.225D+00
 Coeff:      0.641D+00
 Gap=     0.247 Goal=   None    Shift=    0.000
 RMSDP=9.06D-06 MaxDP=3.53D-04 DE=-1.24D-05 OVMax= 1.32D-04

 Cycle   8  Pass 1  IDiag  1:
 E= -616.891285602151     Delta-E=       -0.000000288953 Rises=F Damp=F
 DIIS: error= 6.58D-06 at cycle   8 NSaved=   8.
 NSaved= 8 IEnMin= 8 EnMin= -616.891285602151     IErMin= 8 ErrMin= 6.58D-06
 ErrMax= 6.58D-06 EMaxC= 1.00D-01 BMatC= 1.52D-08 BMatP= 3.15D-07
 IDIUse=1 WtCom= 1.00D+00 WtEn= 0.00D+00
 Coeff-Com: -0.346D-04-0.352D-03 0.225D-02 0.290D-02 0.195D-01 0.571D-01
 Coeff-Com:  0.248D+00 0.670D+00
 Coeff:     -0.346D-04-0.352D-03 0.225D-02 0.290D-02 0.195D-01 0.571D-01
 Coeff:      0.248D+00 0.670D+00
 Gap=     0.247 Goal=   None    Shift=    0.000
 RMSDP=1.59D-06 MaxDP=3.79D-05 DE=-2.89D-07 OVMax= 3.88D-05

 Cycle   9  Pass 1  IDiag  1:
 E= -616.891285616159     Delta-E=       -0.000000014008 Rises=F Damp=F
 DIIS: error= 1.77D-06 at cycle   9 NSaved=   9.
 NSaved= 9 IEnMin= 9 EnMin= -616.891285616159     IErMin= 9 ErrMin= 1.77D-06
 ErrMax= 1.77D-06 EMaxC= 1.00D-01 BMatC= 7.07D-10 BMatP= 1.52D-08
 IDIUse=1 WtCom= 1.00D+00 WtEn= 0.00D+00
 Coeff-Com: -0.129D-04-0.300D-04-0.125D-03-0.708D-04 0.191D-03 0.329D-02
 Coeff-Com:  0.330D-01 0.227D+00 0.737D+00
 Coeff:     -0.129D-04-0.300D-04-0.125D-03-0.708D-04 0.191D-03 0.329D-02
 Coeff:      0.330D-01 0.227D+00 0.737D+00
 Gap=     0.247 Goal=   None    Shift=    0.000
 RMSDP=6.52D-07 MaxDP=2.60D-05 DE=-1.40D-08 OVMax= 7.03D-06

 Cycle  10  Pass 1  IDiag  1:
 E= -616.891285616845     Delta-E=       -0.000000000686 Rises=F Damp=F
 DIIS: error= 2.71D-07 at cycle  10 NSaved=  10.
 NSaved=10 IEnMin=10 EnMin= -616.891285616845     IErMin=10 ErrMin= 2.71D-07
 ErrMax= 2.71D-07 EMaxC= 1.00D-01 BMatC= 2.04D-11 BMatP= 7.07D-10
 IDIUse=1 WtCom= 1.00D+00 WtEn= 0.00D+00
 Coeff-Com: -0.357D-05-0.442D-06-0.977D-04-0.902D-04-0.448D-03-0.315D-03
 Coeff-Com:  0.484D-02 0.617D-01 0.251D+00 0.684D+00
 Coeff:     -0.357D-05-0.442D-06-0.977D-04-0.902D-04-0.448D-03-0.315D-03
 Coeff:      0.484D-02 0.617D-01 0.251D+00 0.684D+00
 Gap=     0.247 Goal=   None    Shift=    0.000
 RMSDP=1.01D-07 MaxDP=3.93D-06 DE=-6.86D-10 OVMax= 1.34D-06

 Cycle  11  Pass 1  IDiag  1:
 E= -616.891285616867     Delta-E=       -0.000000000022 Rises=F Damp=F
 DIIS: error= 9.82D-08 at cycle  11 NSaved=  11.
 NSaved=11 IEnMin=11 EnMin= -616.891285616867     IErMin=11 ErrMin= 9.82D-08
 ErrMax= 9.82D-08 EMaxC= 1.00D-01 BMatC= 3.56D-12 BMatP= 2.04D-11
 IDIUse=1 WtCom= 1.00D+00 WtEn= 0.00D+00
 Coeff-Com: -0.815D-06 0.182D-05-0.347D-04-0.355D-04-0.222D-03-0.343D-03
 Coeff-Com: -0.112D-03 0.116D-01 0.617D-01 0.332D+00 0.596D+00
 Coeff:     -0.815D-06 0.182D-05-0.347D-04-0.355D-04-0.222D-03-0.343D-03
 Coeff:     -0.112D-03 0.116D-01 0.617D-01 0.332D+00 0.596D+00
 Gap=     0.247 Goal=   None    Shift=    0.000
 RMSDP=2.87D-08 MaxDP=8.76D-07 DE=-2.17D-11 OVMax= 4.27D-07

 Cycle  12  Pass 1  IDiag  1:
 E= -616.891285616871     Delta-E=       -0.000000000004 Rises=F Damp=F
 DIIS: error= 1.37D-08 at cycle  12 NSaved=  12.
 NSaved=12 IEnMin=12 EnMin= -616.891285616871     IErMin=12 ErrMin= 1.37D-08
 ErrMax= 1.37D-08 EMaxC= 1.00D-01 BMatC= 7.30D-14 BMatP= 3.56D-12
 IDIUse=1 WtCom= 1.00D+00 WtEn= 0.00D+00
 Coeff-Com: -0.389D-07 0.248D-06-0.139D-05-0.277D-05-0.251D-04-0.273D-04
 Coeff-Com: -0.261D-03-0.125D-02-0.971D-03 0.329D-01 0.139D+00 0.831D+00
 Coeff:     -0.389D-07 0.248D-06-0.139D-05-0.277D-05-0.251D-04-0.273D-04
 Coeff:     -0.261D-03-0.125D-02-0.971D-03 0.329D-01 0.139D+00 0.831D+00
 Gap=     0.247 Goal=   None    Shift=    0.000
 RMSDP=9.03D-09 MaxDP=3.63D-07 DE=-4.21D-12 OVMax= 9.29D-08

 Cycle  13  Pass 1  IDiag  1:
 E= -616.891285616865     Delta-E=        0.000000000006 Rises=F Damp=F
 DIIS: error= 3.23D-09 at cycle  13 NSaved=  13.
 NSaved=13 IEnMin=12 EnMin= -616.891285616871     IErMin=13 ErrMin= 3.23D-09
 ErrMax= 3.23D-09 EMaxC= 1.00D-01 BMatC= 2.65D-15 BMatP= 7.30D-14
 IDIUse=1 WtCom= 1.00D+00 WtEn= 0.00D+00
 Coeff-Com:  0.113D-07 0.428D-07 0.147D-06-0.293D-06-0.454D-05-0.325D-05
 Coeff-Com: -0.981D-04-0.647D-03-0.187D-02 0.126D-02 0.264D-01 0.240D+00
 Coeff-Com:  0.735D+00
 Coeff:      0.113D-07 0.428D-07 0.147D-06-0.293D-06-0.454D-05-0.325D-05
 Coeff:     -0.981D-04-0.647D-03-0.187D-02 0.126D-02 0.264D-01 0.240D+00
 Coeff:      0.735D+00
 Gap=     0.247 Goal=   None    Shift=    0.000
 RMSDP=2.35D-09 MaxDP=9.86D-08 DE= 6.14D-12 OVMax= 1.45D-08

 Cycle  14  Pass 1  IDiag  1:
 E= -616.891285616866     Delta-E=       -0.000000000001 Rises=F Damp=F
 DIIS: error= 7.10D-10 at cycle  14 NSaved=  14.
 NSaved=14 IEnMin=12 EnMin= -616.891285616871     IErMin=14 ErrMin= 7.10D-10
 ErrMax= 7.10D-10 EMaxC= 1.00D-01 BMatC= 1.22D-16 BMatP= 2.65D-15
 IDIUse=1 WtCom= 1.00D+00 WtEn= 0.00D+00
 Coeff-Com:  0.632D-08 0.456D-08 0.942D-09-0.135D-07-0.506D-06-0.282D-06
 Coeff-Com: -0.154D-04-0.790D-04-0.408D-03-0.108D-02 0.834D-03 0.218D-01
 Coeff-Com:  0.195D+00 0.784D+00
 Coeff:      0.632D-08 0.456D-08 0.942D-09-0.135D-07-0.506D-06-0.282D-06
 Coeff:     -0.154D-04-0.790D-04-0.408D-03-0.108D-02 0.834D-03 0.218D-01
 Coeff:      0.195D+00 0.784D+00
 Gap=     0.247 Goal=   None    Shift=    0.000
 RMSDP=5.12D-10 MaxDP=2.28D-08 DE=-1.36D-12 OVMax= 3.46D-09

 Cycle  15  Pass 1  IDiag  1:
 E= -616.891285616868     Delta-E=       -0.000000000002 Rises=F Damp=F
 DIIS: error= 1.55D-10 at cycle  15 NSaved=  15.
 NSaved=15 IEnMin=12 EnMin= -616.891285616871     IErMin=15 ErrMin= 1.55D-10
 ErrMax= 1.55D-10 EMaxC= 1.00D-01 BMatC= 3.18D-18 BMatP= 1.22D-16
 IDIUse=1 WtCom= 1.00D+00 WtEn= 0.00D+00
 Coeff-Com:  0.992D-09 0.682D-09-0.265D-08 0.195D-07 0.260D-07 0.797D-07
 Coeff-Com: -0.558D-06 0.306D-05-0.261D-04-0.212D-03-0.652D-03-0.327D-02
 Coeff-Com:  0.911D-02 0.137D+00 0.858D+00
 Coeff:      0.992D-09 0.682D-09-0.265D-08 0.195D-07 0.260D-07 0.797D-07
 Coeff:     -0.558D-06 0.306D-05-0.261D-04-0.212D-03-0.652D-03-0.327D-02
 Coeff:      0.911D-02 0.137D+00 0.858D+00
 Gap=     0.247 Goal=   None    Shift=    0.000
 RMSDP=8.35D-11 MaxDP=2.88D-09 DE=-1.59D-12 OVMax= 4.62D-10

 Cycle  16  Pass 1  IDiag  1:
 E= -616.891285616867     Delta-E=        0.000000000001 Rises=F Damp=F
 DIIS: error= 2.45D-11 at cycle  16 NSaved=  16.
 NSaved=16 IEnMin=12 EnMin= -616.891285616871     IErMin=16 ErrMin= 2.45D-11
 ErrMax= 2.45D-11 EMaxC= 1.00D-01 BMatC= 1.64D-19 BMatP= 3.18D-18
 IDIUse=1 WtCom= 1.00D+00 WtEn= 0.00D+00
 Large coefficients: NSaved= 16 BigCof=    0.00 CofMax=   10.00 Det=-1.27D-18
 Inversion failed.  Reducing to 15 matrices.
 Coeff-Com: -0.152D-10 0.552D-09 0.676D-08 0.209D-07 0.860D-07 0.382D-06
 Coeff-Com:  0.260D-05 0.715D-05-0.112D-04-0.174D-03-0.128D-02-0.435D-02
 Coeff-Com:  0.513D-02 0.187D+00 0.814D+00
 Coeff:     -0.152D-10 0.552D-09 0.676D-08 0.209D-07 0.860D-07 0.382D-06
 Coeff:      0.260D-05 0.715D-05-0.112D-04-0.174D-03-0.128D-02-0.435D-02
 Coeff:      0.513D-02 0.187D+00 0.814D+00
 Gap=     0.247 Goal=   None    Shift=    0.000
 RMSDP=2.32D-11 MaxDP=6.08D-10 DE= 1.02D-12 OVMax= 1.62D-10

 Cycle  17  Pass 1  IDiag  1:
 E= -616.891285616866     Delta-E=        0.000000000001 Rises=F Damp=F
 DIIS: error= 7.20D-12 at cycle  17 NSaved=  16.
 NSaved=16 IEnMin=11 EnMin= -616.891285616871     IErMin=16 ErrMin= 7.20D-12
 ErrMax= 7.20D-12 EMaxC= 1.00D-01 BMatC= 5.63D-21 BMatP= 1.64D-19
 IDIUse=1 WtCom= 1.00D+00 WtEn= 0.00D+00
 Large coefficients: NSaved= 16 BigCof=    0.00 CofMax=   10.00 Det=-5.16D-20
 Inversion failed.  Reducing to 15 matrices.
 Coeff-Com:  0.668D-09 0.159D-08 0.528D-08 0.258D-07 0.116D-06 0.506D-06
 Coeff-Com:  0.274D-05 0.238D-05-0.327D-04-0.268D-03-0.159D-02-0.314D-02
 Coeff-Com:  0.224D-01 0.225D+00 0.758D+00
 Coeff:      0.668D-09 0.159D-08 0.528D-08 0.258D-07 0.116D-06 0.506D-06
 Coeff:      0.274D-05 0.238D-05-0.327D-04-0.268D-03-0.159D-02-0.314D-02
 Coeff:      0.224D-01 0.225D+00 0.758D+00
 Gap=     0.247 Goal=   None    Shift=    0.000
 RMSDP=2.13D-11 MaxDP=1.79D-09 DE= 5.68D-13 OVMax= 1.77D-11

 Cycle  18  Pass 1  IDiag  1:
 E= -616.891285616866     Delta-E=        0.000000000000 Rises=F Damp=F
 DIIS: error= 1.47D-12 at cycle  18 NSaved=  16.
 NSaved=16 IEnMin=10 EnMin= -616.891285616871     IErMin=16 ErrMin= 1.47D-12
 ErrMax= 1.47D-12 EMaxC= 1.00D-01 BMatC= 1.79D-22 BMatP= 5.63D-21
 IDIUse=1 WtCom= 1.00D+00 WtEn= 0.00D+00
 Large coefficients: NSaved= 16 BigCof=    0.00 CofMax=   10.00 Det=-2.25D-21
 Inversion failed.  Reducing to 15 matrices.
 Coeff-Com:  0.674D-10 0.227D-09 0.313D-08 0.191D-07 0.983D-07 0.559D-06
 Coeff-Com:  0.919D-06-0.275D-05-0.273D-04-0.207D-03-0.650D-03-0.714D-03
 Coeff-Com:  0.252D-01 0.154D+00 0.823D+00
 Coeff:      0.674D-10 0.227D-09 0.313D-08 0.191D-07 0.983D-07 0.559D-06
 Coeff:      0.919D-06-0.275D-05-0.273D-04-0.207D-03-0.650D-03-0.714D-03
 Coeff:      0.252D-01 0.154D+00 0.823D+00
 Gap=     0.247 Goal=   None    Shift=    0.000
 RMSDP=1.06D-11 MaxDP=5.34D-10 DE= 2.27D-13 OVMax= 5.05D-12

 Cycle  19  Pass 1  IDiag  1:
 E= -616.891285616867     Delta-E=       -0.000000000001 Rises=F Damp=F
 DIIS: error= 1.90D-12 at cycle  19 NSaved=  16.
 NSaved=16 IEnMin= 9 EnMin= -616.891285616871     IErMin=15 ErrMin= 1.47D-12
 ErrMax= 1.90D-12 EMaxC= 1.00D-01 BMatC= 1.56D-22 BMatP= 1.79D-22
 IDIUse=1 WtCom= 1.00D+00 WtEn= 0.00D+00
 Large coefficients: NSaved= 16 BigCof=    0.00 CofMax=   10.00 Det=-4.35D-22
 Inversion failed.  Reducing to 15 matrices.
 Coeff-Com: -0.842D-10 0.524D-09 0.355D-08 0.202D-07 0.163D-06 0.464D-06
 Coeff-Com:  0.172D-06-0.164D-05-0.494D-04-0.262D-03-0.155D-02 0.440D-02
 Coeff-Com:  0.524D-01 0.494D+00 0.451D+00
 Coeff:     -0.842D-10 0.524D-09 0.355D-08 0.202D-07 0.163D-06 0.464D-06
 Coeff:      0.172D-06-0.164D-05-0.494D-04-0.262D-03-0.155D-02 0.440D-02
 Coeff:      0.524D-01 0.494D+00 0.451D+00
 Gap=     0.247 Goal=   None    Shift=    0.000
 RMSDP=5.82D-12 MaxDP=2.36D-10 DE=-7.96D-13 OVMax= 2.67D-12

 SCF Done:  E(RB3LYP) =  -616.891285617     A.U. after   19 cycles
             Convg  =    0.5820D-11             -V/T =  2.0029
 KE= 6.151370621972D+02 PE=-1.880841597720D+03 EE= 4.367999125472D+02
 Leave Link  502 at Wed Jul 10 17:15:32 2013, MaxMem=  131072000 cpu:     253.0
 (Enter /cerebro/home/software/apps/g09/l801.exe)
 Range of M.O.s used for correlation:     1   167
 NBasis=   167 NAE=    24 NBE=    24 NFC=     0 NFV=     0
 NROrb=    167 NOA=    24 NOB=    24 NVA=   143 NVB=   143

 **** Warning!!: The largest alpha MO coefficient is  0.69438308D+02

 Leave Link  801 at Wed Jul 10 17:15:32 2013, MaxMem=  131072000 cpu:       0.1
 (Enter /cerebro/home/software/apps/g09/l1002.exe)
 Minotr:  Closed shell wavefunction.
          Direct CPHF calculation.
          Differentiating once with respect to magnetic field using GIAOs.
          Electric field/nuclear overlap derivatives assumed to be zero.
          Requested convergence is 1.0D-11 RMS, and 1.0D-10 maximum.
          NewPWx=F KeepS1=T KeepF1=T KeepIn=T MapXYZ=F SortEE=F KeepMc=T.
          MDV=     131071900 using IRadAn=       4.
 Generate precomputed XC quadrature information.
          Solving linear equations separately, MaxMat=       0.
          Doing perturbations at frequencies    0.071980    0.077357    0.104503    0.128347
 FoFCou: FMM=F IPFlag=           0 FMFlag=           0 FMFlg1=           0
         NFxFlg=           0 DoJE=F BraDBF=F KetDBF=T FulRan=T
         Omega=  0.000000  0.000000  1.000000  0.000000  0.000000 ICntrl=    6100 IOpCl=  0
         NMat0=    1 NMatS0=    1 NMatT0=    0 NMatD0=    1 NMtDS0=    0 NMtDT0=    0
         I1Cent=           7 NGrid=          12.
 Symmetry not used in FoFCou.
 Integrals replicated using symmetry in FoFDir.
 MinBra= 0 MaxBra= 2 Meth= 1.
 IRaf=       0 NMat=  24 IRICut=      30 DoRegI=T DoRafI=T ISym2E= 2 JSym2E=2.
 CalDSu exits because no D1Ps are significant.
          There are    12 degrees of freedom in the 1st order CPHF.  IDoFFX=0.
 LinEq1:  Iter=  0 NonCon=    12 RMS=5.68D-02 Max=1.50D+00
 AX will form    12 AO Fock derivatives at one time.
 LinEq1:  Iter=  1 NonCon=    12 RMS=1.71D-02 Max=8.35D-01
 LinEq1:  Iter=  2 NonCon=    12 RMS=1.25D-02 Max=7.01D-01
 LinEq1:  Iter=  3 NonCon=    12 RMS=6.60D-03 Max=1.80D-01
 LinEq1:  Iter=  4 NonCon=    12 RMS=4.19D-03 Max=7.32D-02
 LinEq1:  Iter=  5 NonCon=    12 RMS=1.71D-03 Max=5.23D-02
 LinEq1:  Iter=  6 NonCon=    12 RMS=9.34D-04 Max=1.83D-02
 LinEq1:  Iter=  7 NonCon=    12 RMS=3.28D-04 Max=6.75D-03
 LinEq1:  Iter=  8 NonCon=    12 RMS=1.37D-04 Max=2.79D-03
 LinEq1:  Iter=  9 NonCon=    12 RMS=4.93D-05 Max=7.48D-04
 LinEq1:  Iter= 10 NonCon=    12 RMS=1.96D-05 Max=2.69D-04
 LinEq1:  Iter= 11 NonCon=    12 RMS=7.35D-06 Max=1.64D-04
 LinEq1:  Iter= 12 NonCon=    12 RMS=3.36D-06 Max=4.52D-05
 LinEq1:  Iter= 13 NonCon=    12 RMS=1.30D-06 Max=2.14D-05
 LinEq1:  Iter= 14 NonCon=    12 RMS=4.31D-07 Max=7.20D-06
 LinEq1:  Iter= 15 NonCon=    12 RMS=1.13D-07 Max=1.64D-06
 LinEq1:  Iter= 16 NonCon=    12 RMS=3.61D-08 Max=6.67D-07
 LinEq1:  Iter= 17 NonCon=    12 RMS=8.25D-09 Max=1.85D-07
 LinEq1:  Iter= 18 NonCon=    12 RMS=1.96D-09 Max=4.58D-08
 LinEq1:  Iter= 19 NonCon=    12 RMS=5.79D-10 Max=1.50D-08
 LinEq1:  Iter= 20 NonCon=    12 RMS=1.54D-10 Max=3.33D-09
 LinEq1:  Iter= 21 NonCon=     8 RMS=5.82D-11 Max=1.49D-09
 LinEq1:  Iter= 22 NonCon=     3 RMS=1.29D-11 Max=2.24D-10
 LinEq1:  Iter= 23 NonCon=     0 RMS=5.26D-12 Max=6.14D-11
 Linear equations converged to 1.000D-11 1.000D-10 after    23 iterations.
 FullF1:  Do perturbations    1 to    12.
 Dipole-magnetic dipole polarizability for W=    0.071980:
                 1             2             3 
      1   0.486686D+01  0.123319D+01 -0.750815D+01
      2   0.793278D+01 -0.488233D+01  0.172787D+02
      3   0.244137D+02 -0.942991D+01  0.149588D+01
 w=    0.071980 a.u., Optical Rotation Beta=     -0.4935 au.
 Molar Mass =     90.5523 grams/mole, [Alpha] ( 6330.0 A) =     -182.56 deg.
 Dipole-magnetic dipole polarizability for W=    0.077357:
                 1             2             3 
      1   0.494049D+01  0.122135D+01 -0.749785D+01
      2   0.807228D+01 -0.492942D+01  0.173389D+02
      3   0.246232D+02 -0.952042D+01  0.152043D+01
 w=    0.077357 a.u., Optical Rotation Beta=     -0.5105 au.
 Molar Mass =     90.5523 grams/mole, [Alpha] ( 5890.0 A) =     -218.13 deg.
 Dipole-magnetic dipole polarizability for W=    0.104503:
                 1             2             3 
      1   0.545214D+01  0.113007D+01 -0.741823D+01
      2   0.902380D+01 -0.523902D+01  0.177291D+02
      3   0.260779D+02 -0.101489D+02  0.169268D+01
 w=    0.104503 a.u., Optical Rotation Beta=     -0.6353 au.
 Molar Mass =     90.5523 grams/mole, [Alpha] ( 4360.0 A) =     -495.37 deg.
 Dipole-magnetic dipole polarizability for W=    0.128347:
                 1             2             3 
      1   0.618666D+01  0.976344D+00 -0.728719D+01
      2   0.103304D+02 -0.563393D+01  0.182149D+02
      3   0.281693D+02 -0.110499D+02  0.194419D+01
 w=    0.128347 a.u., Optical Rotation Beta=     -0.8323 au.
 Molar Mass =     90.5523 grams/mole, [Alpha] ( 3550.0 A) =     -978.98 deg.
 End of Minotr Frequency-dependent properties on file   721 Mask=       2 NFrqRd=     4 NDeriv=     1 LenFil=      42:
 Frequencies=    0.071980    0.077357    0.104503    0.128347
 Property number 2 -- FD Optical Rotation Tensor frequency  1    0.071980:
                 1             2             3 
      1   0.486686D+01  0.123319D+01 -0.750815D+01
      2   0.793278D+01 -0.488233D+01  0.172787D+02
      3   0.244137D+02 -0.942991D+01  0.149588D+01
 Property number 2 -- FD Optical Rotation Tensor frequency  2    0.077357:
                 1             2             3 
      1   0.494049D+01  0.122135D+01 -0.749785D+01
      2   0.807228D+01 -0.492942D+01  0.173389D+02
      3   0.246232D+02 -0.952042D+01  0.152043D+01
 Property number 2 -- FD Optical Rotation Tensor frequency  3    0.104503:
                 1             2             3 
      1   0.545214D+01  0.113007D+01 -0.741823D+01
      2   0.902380D+01 -0.523902D+01  0.177291D+02
      3   0.260779D+02 -0.101489D+02  0.169268D+01
 Property number 2 -- FD Optical Rotation Tensor frequency  4    0.128347:
                 1             2             3 
      1   0.618666D+01  0.976344D+00 -0.728719D+01
      2   0.103304D+02 -0.563393D+01  0.182149D+02
      3   0.281693D+02 -0.110499D+02  0.194419D+01
 End of Minotr Frequency-dependent properties file   722 does not exist.
 Leave Link 1002 at Wed Jul 10 17:40:24 2013, MaxMem=  131072000 cpu:    1492.0
 (Enter /cerebro/home/software/apps/g09/l601.exe)
 Copying SCF densities to generalized density rwf, IOpCl= 0 IROHF=0.

 **********************************************************************

            Population analysis using the SCF density.

 **********************************************************************

 Orbital symmetries:
       Occupied  (A) (A) (A) (A) (A) (A) (A) (A) (A) (A) (A) (A)
                 (A) (A) (A) (A) (A) (A) (A) (A) (A) (A) (A) (A)
       Virtual   (A) (A) (A) (A) (A) (A) (A) (A) (A) (A) (A) (A)
                 (A) (A) (A) (A) (A) (A) (A) (A) (A) (A) (A) (A)
                 (A) (A) (A) (A) (A) (A) (A) (A) (A) (A) (A) (A)
                 (A) (A) (A) (A) (A) (A) (A) (A) (A) (A) (A) (A)
                 (A) (A) (A) (A) (A) (A) (A) (A) (A) (A) (A) (A)
                 (A) (A) (A) (A) (A) (A) (A) (A) (A) (A) (A) (A)
                 (A) (A) (A) (A) (A) (A) (A) (A) (A) (A) (A) (A)
                 (A) (A) (A) (A) (A) (A) (A) (A) (A) (A) (A) (A)
                 (A) (A) (A) (A) (A) (A) (A) (A) (A) (A) (A) (A)
                 (A) (A) (A) (A) (A) (A) (A) (A) (A) (A) (A) (A)
                 (A) (A) (A) (A) (A) (A) (A) (A) (A) (A) (A) (A)
                 (A) (A) (A) (A) (A) (A) (A) (A) (A) (A) (A)
 The electronic state is 1-A.
 Alpha  occ. eigenvalues -- -101.53397 -10.24785 -10.18717 -10.18174 -10.18108
 Alpha  occ. eigenvalues --   -9.44841  -7.21273  -7.20333  -7.20316  -0.86749
 Alpha  occ. eigenvalues --   -0.78816  -0.74248  -0.64039  -0.58656  -0.48641
 Alpha  occ. eigenvalues --   -0.47779  -0.44512  -0.41700  -0.40708  -0.37735
 Alpha  occ. eigenvalues --   -0.36761  -0.30573  -0.29834  -0.27969
 Alpha virt. eigenvalues --   -0.03319  -0.00777   0.00655   0.00858   0.02217
 Alpha virt. eigenvalues --    0.02843   0.03878   0.04143   0.06360   0.06580
 Alpha virt. eigenvalues --    0.07293   0.08390   0.08795   0.09897   0.11186
 Alpha virt. eigenvalues --    0.11664   0.11889   0.12178   0.13056   0.13110
 Alpha virt. eigenvalues --    0.13563   0.14232   0.15039   0.15711   0.16148
 Alpha virt. eigenvalues --    0.16512   0.17338   0.18845   0.19269   0.21471
 Alpha virt. eigenvalues --    0.22005   0.23296   0.24768   0.26235   0.27401
 Alpha virt. eigenvalues --    0.29208   0.34183   0.36219   0.38916   0.42481
 Alpha virt. eigenvalues --    0.43053   0.44721   0.45995   0.47930   0.48797
 Alpha virt. eigenvalues --    0.49621   0.52522   0.53106   0.56928   0.58891
 Alpha virt. eigenvalues --    0.59865   0.62498   0.63850   0.64792   0.65806
 Alpha virt. eigenvalues --    0.66445   0.69606   0.71048   0.73671   0.74608
 Alpha virt. eigenvalues --    0.78730   0.81813   0.83933   0.86205   0.89148
 Alpha virt. eigenvalues --    0.90305   0.94359   0.96253   1.00628   1.03320
 Alpha virt. eigenvalues --    1.06623   1.08526   1.12834   1.17736   1.19875
 Alpha virt. eigenvalues --    1.29127   1.39742   1.43653   1.45268   1.47259
 Alpha virt. eigenvalues --    1.50931   1.54432   1.56424   1.58672   1.59562
 Alpha virt. eigenvalues --    1.63370   1.66888   1.69632   1.70657   1.72560
 Alpha virt. eigenvalues --    1.77604   1.80982   1.87910   1.88859   1.93613
 Alpha virt. eigenvalues --    1.98651   2.02154   2.07892   2.11970   2.19169
 Alpha virt. eigenvalues --    2.20095   2.21280   2.26295   2.29986   2.30753
 Alpha virt. eigenvalues --    2.36223   2.37561   2.45683   2.47609   2.49793
 Alpha virt. eigenvalues --    2.54084   2.56377   2.57727   2.59114   2.60027
 Alpha virt. eigenvalues --    2.65157   2.73541   2.74577   2.75645   2.81315
 Alpha virt. eigenvalues --    2.85914   2.86574   2.93320   3.08204   3.12381
 Alpha virt. eigenvalues --    3.18937   3.40641   3.51630   3.75039   3.79435
 Alpha virt. eigenvalues --    3.80038   4.03591   4.12648   4.29386   9.75625
 Alpha virt. eigenvalues --   23.74950  23.82273  23.94639  24.26514  25.93127
 Alpha virt. eigenvalues --   25.97407  26.44624 215.74612
          Condensed to atoms (all electrons):
              1          2          3          4          5          6
     1  C    5.410679   0.133156   0.002668   0.106107  -0.005467   0.378416
     2  C    0.133156   5.413338   0.036216  -0.110367  -0.024802  -0.051423
     3  C    0.002668   0.036216   5.281614   0.440429  -0.034944   0.022921
     4  C    0.106107  -0.110367   0.440429   5.368416   0.382038  -0.012049
     5  H   -0.005467  -0.024802  -0.034944   0.382038   0.568245   0.000839
     6  H    0.378416  -0.051423   0.022921  -0.012049   0.000839   0.547017
     7  H    0.002765   0.021515  -0.013468   0.391031  -0.042548   0.000231
     8  H   -0.023535  -0.018341   0.350371  -0.050151   0.021001  -0.001894
     9  H   -0.045651   0.469120  -0.130983   0.008516   0.012074  -0.003799
    10  H    0.393966  -0.012951  -0.044744  -0.002565   0.002272  -0.018498
    11  H    0.369812  -0.051936   0.020093   0.005324  -0.001287  -0.028547
    12  Cl  -0.051328   0.023092  -0.002444   0.065938   0.000159   0.013040
              7          8          9         10         11         12
     1  C    0.002765  -0.023535  -0.045651   0.393966   0.369812  -0.051328
     2  C    0.021515  -0.018341   0.469120  -0.012951  -0.051936   0.023092
     3  C   -0.013468   0.350371  -0.130983  -0.044744   0.020093  -0.002444
     4  C    0.391031  -0.050151   0.008516  -0.002565   0.005324   0.065938
     5  H   -0.042548   0.021001   0.012074   0.002272  -0.001287   0.000159
     6  H    0.000231  -0.001894  -0.003799  -0.018498  -0.028547   0.013040
     7  H    0.542327  -0.025747  -0.003079  -0.000863   0.000441  -0.004557
     8  H   -0.025747   0.560152   0.006926   0.004168  -0.003729   0.021097
     9  H   -0.003079   0.006926   0.516139   0.007885  -0.011776  -0.043742
    10  H   -0.000863   0.004168   0.007885   0.540934  -0.034425   0.009002
    11  H    0.000441  -0.003729  -0.011776  -0.034425   0.582535   0.018767
    12  Cl  -0.004557   0.021097  -0.043742   0.009002   0.018767  17.009101
 Mulliken atomic charges:
              1
     1  C   -0.671588
     2  C    0.173385
     3  C    0.072274
     4  C   -0.592667
     5  H    0.122419
     6  H    0.153747
     7  H    0.131951
     8  H    0.159685
     9  H    0.218370
    10  H    0.155820
    11  H    0.134729
    12  Cl  -0.058124
 Sum of Mulliken atomic charges =   0.00000
 Mulliken charges with hydrogens summed into heavy atoms:
              1
     1  C   -0.227293
     2  C    0.391755
     3  C    0.231959
     4  C   -0.338297
    12  Cl  -0.058124
 Sum of Mulliken charges with hydrogens summed into heavy atoms =   0.00000
 Electronic spatial extent (au):  <R**2>=            627.8921
 Charge=              0.0000 electrons
 Dipole moment (field-independent basis, Debye):
    X=              1.7051    Y=              1.5736    Z=              0.3065  Tot=              2.3404
 Quadrupole moment (field-independent basis, Debye-Ang):
   XX=            -39.3779   YY=            -39.9838   ZZ=            -37.0997
   XY=             -2.3456   XZ=              0.0405   YZ=              0.1709
 Traceless Quadrupole moment (field-independent basis, Debye-Ang):
   XX=             -0.5574   YY=             -1.1633   ZZ=              1.7207
   XY=             -2.3456   XZ=              0.0405   YZ=              0.1709
 Octapole moment (field-independent basis, Debye-Ang**2):
  XXX=              2.0548  YYY=              1.4778  ZZZ=              0.3632  XYY=             -4.3066
  XXY=             -4.6595  XXZ=             -0.3244  XZZ=              0.9833  YZZ=             -0.3458
  YYZ=              0.1098  XYZ=             -0.3494
 Hexadecapole moment (field-independent basis, Debye-Ang**3):
 XXXX=           -488.4956 YYYY=           -277.6657 ZZZZ=            -79.7228 XXXY=             -9.4537
 XXXZ=             -2.6557 YYYX=              8.2755 YYYZ=              1.8078 ZZZX=              0.9070
 ZZZY=             -1.2964 XXYY=           -129.4247 XXZZ=            -95.5833 YYZZ=            -61.1047
 XXYZ=              3.0933 YYXZ=              0.7635 ZZXY=             -1.6246
 N-N= 2.120133373584D+02 E-N=-1.880841597720D+03  KE= 6.151370621972D+02
 No NMR shielding tensors so no spin-rotation constants.
 Leave Link  601 at Wed Jul 10 17:40:25 2013, MaxMem=  131072000 cpu:       0.3
 (Enter /cerebro/home/software/apps/g09/l9999.exe)
 AllDun Frequency-dependent properties on file 20721 Mask=       2 NFrqRd=     4 NDeriv=     1 LenFil=      42:
 Frequencies=    0.071980    0.077357    0.104503    0.128347
 Property number 2 -- FD Optical Rotation Tensor frequency  1    0.071980:
                 1             2             3 
      1   0.486659D+01 -0.123348D+01 -0.750866D+01
      2  -0.793307D+01 -0.488206D+01 -0.172784D+02
      3   0.244140D+02  0.942919D+01  0.149588D+01
 Property number 2 -- FD Optical Rotation Tensor frequency  2    0.077357:
                 1             2             3 
      1   0.494022D+01 -0.122164D+01 -0.749836D+01
      2  -0.807257D+01 -0.492914D+01 -0.173387D+02
      3   0.246235D+02  0.951969D+01  0.152043D+01
 Property number 2 -- FD Optical Rotation Tensor frequency  3    0.104503:
                 1             2             3 
      1   0.545184D+01 -0.113039D+01 -0.741875D+01
      2  -0.902412D+01 -0.523872D+01 -0.177288D+02
      3   0.260782D+02  0.101481D+02  0.169268D+01
 Property number 2 -- FD Optical Rotation Tensor frequency  4    0.128347:
                 1             2             3 
      1   0.618632D+01 -0.976694D+00 -0.728773D+01
      2  -0.103308D+02 -0.563360D+01 -0.182147D+02
      3   0.281697D+02  0.110490D+02  0.194419D+01
 1\1\GINC-COMPUTE-0-119\SP\RB3LYP\6-311++G(d,p)\C4H7Cl1\CRAWDAD\10-Jul-
 2013\0\\#P B3LYP/6-311++G** scf(conver=11) int=ultrafine polar=optrot 
 cphf(rdfreq,conver=11)\\(R)-3-chloro-1-butene tau=120\\0,1\C,0,0.46872
 551,1.75393028,0.04039385\C,0,0.00612615,0.35021727,-0.32343569\C,0,-1
 .20491276,-0.09644983,0.43282402\C,0,-2.33337396,-0.49825767,-0.157655
 71\H,0,-2.42646542,-0.55063552,-1.21565994\H,0,1.37508346,2.02203021,-
 0.50977518\H,0,-3.19583569,-0.78810291,0.42531038\H,0,-1.13333808,-0.0
 6338827,1.44226311\H,0,-0.15686248,0.25684066,-1.40853163\H,0,0.674480
 29,1.8310718,1.10495602\H,0,-0.32020706,2.47040531,-0.21338184\Cl,0,1.
 38604848,-0.83736615,0.02287632\\Version=EM64L-G09RevA.02\State=1-A\HF
 =-616.8912856\RMSD=5.820e-12\Dipole=-0.6708346,0.6191028,-0.1205723\Qu
 adrupole=-0.414319,-0.8650067,1.2793256,1.7438734,0.0301174,-0.1270866
 \PG=C01 [X(C4H7Cl1)]\\@


 WHERE THERE IS MUCH DESIRE TO LEARN, THERE OF NECESSITY WILL BE
 MUCH ARGUING, MUCH WRITING, MANY OPINIONS; FOR OPINION IN GOOD MEN
 IS BUT KNOWLEDGE IN THE MAKING. -- JOHN MILTON.
 Job cpu time:  0 days  0 hours 29 minutes 14.2 seconds.
 File lengths (MBytes):  RWF=    119 Int=      0 D2E=      0 Chk=      2 Scr=      1
 Normal termination of Gaussian 09 at Wed Jul 10 17:40:25 2013.
