(R)-3-chloro-1-butene tau=120                                           
SP        RB3LYP                                                      6-311++G(d,p)       
Number of atoms                            I               12
Info1-9                                    I   N=           9
          26          26           0           0           0         110
           1          18        -502
Full Title                                 C   N=           3
(R)-3-chloro-1-butene tau=120       
Route                                      C   N=           7
#P B3LYP/6-311++G** scf(conver=11) int=ultrafine polar=optro
t cphf(rdfreq,conver=11)
Charge                                     I                0
Multiplicity                               I                1
Number of electrons                        I               48
Number of alpha electrons                  I               24
Number of beta electrons                   I               24
Number of basis functions                  I              167
Number of independent functions            I              167
Number of point charges in /Mol/           I                0
Number of translation vectors              I                0
Atomic numbers                             I   N=          12
           6           6           6           6           1           1
           1           1           1           1           1          17
Nuclear charges                            R   N=          12
  6.00000000E+00  6.00000000E+00  6.00000000E+00  6.00000000E+00  1.00000000E+00
  1.00000000E+00  1.00000000E+00  1.00000000E+00  1.00000000E+00  1.00000000E+00
  1.00000000E+00  1.70000000E+01
Current cartesian coordinates              R   N=          36
 -8.85701386E-01  3.31448840E+00 -7.76389108E-02 -1.15938133E-02  6.61829361E-01
  6.09899279E-01  2.27691307E+00 -1.82316879E-01 -8.19224458E-01  4.40937321E+00
 -9.41686783E-01  2.96620518E-01  4.58528765E+00 -1.04067178E+00  2.29595876E+00
 -2.59845469E+00  3.82117454E+00  9.62029883E-01  6.03917347E+00 -1.48946316E+00
 -8.05025736E-01  2.14165838E+00 -1.19835581E-01 -2.72678789E+00  2.96404836E-01
  4.85364023E-01  2.66043343E+00 -1.27451725E+00  3.46027625E+00 -2.08936986E+00
  6.05205190E-01  4.66838585E+00  4.01927643E-01 -2.61933554E+00 -1.58230087E+00
 -4.45355766E-02
Number of symbols in /Mol/                 I                0
Force Field                                I                0
Atom Types                                 C   N=          12
                                                            
                                                            
                        
Int Atom Types                             I   N=          12
           0           0           0           0           0           0
           0           0           0           0           0           0
MM charges                                 R   N=          12
  0.00000000E+00  0.00000000E+00  0.00000000E+00  0.00000000E+00  0.00000000E+00
  0.00000000E+00  0.00000000E+00  0.00000000E+00  0.00000000E+00  0.00000000E+00
  0.00000000E+00  0.00000000E+00
Integer atomic weights                     I   N=          12
          12          12          12          12           1           1
           1           1           1           1           1          35
Real atomic weights                        R   N=          12
  1.20000000E+01  1.20000000E+01  1.20000000E+01  1.20000000E+01  1.00782504E+00
  1.00782504E+00  1.00782504E+00  1.00782504E+00  1.00782504E+00  1.00782504E+00
  1.00782504E+00  3.49688527E+01
Atom fragment info                         I   N=          12
           0           0           0           0           0           0
           0           0           0           0           0           0
Atom residue num                           I   N=          12
           0           0           0           0           0           0
           0           0           0           0           0           0
Nuclear spins                              I   N=          12
           0           0           0           0           1           1
           1           1           1           1           1           3
Nuclear ZEff                               R   N=          12
 -3.60000000E+00 -3.60000000E+00 -3.60000000E+00 -3.60000000E+00 -1.00000000E+00
 -1.00000000E+00 -1.00000000E+00 -1.00000000E+00 -1.00000000E+00 -1.00000000E+00
 -1.00000000E+00 -1.42400000E+01
Nuclear ZNuc                               R   N=          12
  6.00000000E+00  6.00000000E+00  6.00000000E+00  6.00000000E+00  1.00000000E+00
  1.00000000E+00  1.00000000E+00  1.00000000E+00  1.00000000E+00  1.00000000E+00
  1.00000000E+00  1.70000000E+01
Nuclear QMom                               R   N=          12
  0.00000000E+00  0.00000000E+00  0.00000000E+00  0.00000000E+00  0.00000000E+00
  0.00000000E+00  0.00000000E+00  0.00000000E+00  0.00000000E+00  0.00000000E+00
  0.00000000E+00 -8.16500000E+00
Nuclear GFac                               R   N=          12
  0.00000000E+00  0.00000000E+00  0.00000000E+00  0.00000000E+00  2.79284600E+00
  2.79284600E+00  2.79284600E+00  2.79284600E+00  2.79284600E+00  2.79284600E+00
  2.79284600E+00  8.21874000E-01
MicOpt                                     I   N=          12
          -1          -1          -1          -1          -1          -1
          -1          -1          -1          -1          -1          -1
Number of residues                         I                0
Number of secondary structures             I                0
SymInf integers                            I   N=          26
           1           1           1           1           1           0
           0           0           0           0           0           0
           0           0           0           0           0           0
           0           0           0           0           0           0
           0           0
RotTr to input orientation                 R   N=          12
 -1.00000000E+00  2.96033643E-05  0.00000000E+00  2.96033643E-05  1.00000000E+00
 -0.00000000E+00  0.00000000E+00  0.00000000E+00 -1.00000000E+00 -3.66598996E-05
 -1.42898728E-05 -1.30559682E-03
Number of contracted shells                I               72
Number of primitive shells                 I              126
Pure/Cartesian d shells                    I                0
Pure/Cartesian f shells                    I                0
Highest angular momentum                   I                2
Largest degree of contraction              I                6
Shell types                                I   N=          72
           0          -1          -1          -1          -1          -2
           0          -1          -1          -1          -1          -2
           0          -1          -1          -1          -1          -2
           0          -1          -1          -1          -1          -2
           0           0           0           0           1           0
           0           0           0           1           0           0
           0           0           1           0           0           0
           0           1           0           0           0           0
           1           0           0           0           0           1
           0           0           0           0           1           0
           0           0           0           0           0          -1
           1           1           1           1           1          -2
Number of primitives per shell             I   N=          72
           6           3           1           1           1           1
           6           3           1           1           1           1
           6           3           1           1           1           1
           6           3           1           1           1           1
           3           1           1           1           1           3
           1           1           1           1           3           1
           1           1           1           3           1           1
           1           1           3           1           1           1
           1           3           1           1           1           1
           3           1           1           1           1           6
           3           1           1           1           1           1
           5           2           1           1           1           1
Shell to atom map                          I   N=          72
           1           1           1           1           1           1
           2           2           2           2           2           2
           3           3           3           3           3           3
           4           4           4           4           4           4
           5           5           5           5           5           6
           6           6           6           6           7           7
           7           7           7           8           8           8
           8           8           9           9           9           9
           9          10          10          10          10          10
          11          11          11          11          11          12
          12          12          12          12          12          12
          12          12          12          12          12          12
Primitive exponents                        R   N=         126
  4.56324000E+03  6.82024000E+02  1.54973000E+02  4.44553000E+01  1.30290000E+01
  1.82773000E+00  2.09642000E+01  4.80331000E+00  1.45933000E+00  4.83456000E-01
  1.45585000E-01  4.38000000E-02  6.26000000E-01  4.56324000E+03  6.82024000E+02
  1.54973000E+02  4.44553000E+01  1.30290000E+01  1.82773000E+00  2.09642000E+01
  4.80331000E+00  1.45933000E+00  4.83456000E-01  1.45585000E-01  4.38000000E-02
  6.26000000E-01  4.56324000E+03  6.82024000E+02  1.54973000E+02  4.44553000E+01
  1.30290000E+01  1.82773000E+00  2.09642000E+01  4.80331000E+00  1.45933000E+00
  4.83456000E-01  1.45585000E-01  4.38000000E-02  6.26000000E-01  4.56324000E+03
  6.82024000E+02  1.54973000E+02  4.44553000E+01  1.30290000E+01  1.82773000E+00
  2.09642000E+01  4.80331000E+00  1.45933000E+00  4.83456000E-01  1.45585000E-01
  4.38000000E-02  6.26000000E-01  3.38650000E+01  5.09479000E+00  1.15879000E+00
  3.25840000E-01  1.02741000E-01  3.60000000E-02  7.50000000E-01  3.38650000E+01
  5.09479000E+00  1.15879000E+00  3.25840000E-01  1.02741000E-01  3.60000000E-02
  7.50000000E-01  3.38650000E+01  5.09479000E+00  1.15879000E+00  3.25840000E-01
  1.02741000E-01  3.60000000E-02  7.50000000E-01  3.38650000E+01  5.09479000E+00
  1.15879000E+00  3.25840000E-01  1.02741000E-01  3.60000000E-02  7.50000000E-01
  3.38650000E+01  5.09479000E+00  1.15879000E+00  3.25840000E-01  1.02741000E-01
  3.60000000E-02  7.50000000E-01  3.38650000E+01  5.09479000E+00  1.15879000E+00
  3.25840000E-01  1.02741000E-01  3.60000000E-02  7.50000000E-01  3.38650000E+01
  5.09479000E+00  1.15879000E+00  3.25840000E-01  1.02741000E-01  3.60000000E-02
  7.50000000E-01  1.05819000E+05  1.58720000E+04  3.61965000E+03  1.03080000E+03
  3.39908000E+02  1.24538000E+02  1.24538000E+02  4.95135000E+01  2.08056000E+01
  6.58346000E+00  2.56468000E+00  5.59763000E-01  1.83273000E-01  4.83000000E-02
  5.89776000E+02  1.39849000E+02  4.51413000E+01  1.68733000E+01  2.77152000E+00
  6.74110000E+00  2.77152000E+00  1.02387000E+00  3.81368000E-01  1.09437000E-01
  7.50000000E-01
Contraction coefficients                   R   N=         126
  1.96665025E-03  1.52306019E-02  7.61269097E-02  2.60801033E-01  6.16462078E-01
  2.21006028E-01  1.14660081E-01  9.19999648E-01 -3.03068213E-03  1.00000000E+00
  1.00000000E+00  1.00000000E+00  1.00000000E+00  1.96665025E-03  1.52306019E-02
  7.61269097E-02  2.60801033E-01  6.16462078E-01  2.21006028E-01  1.14660081E-01
  9.19999648E-01 -3.03068213E-03  1.00000000E+00  1.00000000E+00  1.00000000E+00
  1.00000000E+00  1.96665025E-03  1.52306019E-02  7.61269097E-02  2.60801033E-01
  6.16462078E-01  2.21006028E-01  1.14660081E-01  9.19999648E-01 -3.03068213E-03
  1.00000000E+00  1.00000000E+00  1.00000000E+00  1.00000000E+00  1.96665025E-03
  1.52306019E-02  7.61269097E-02  2.60801033E-01  6.16462078E-01  2.21006028E-01
  1.14660081E-01  9.19999648E-01 -3.03068213E-03  1.00000000E+00  1.00000000E+00
  1.00000000E+00  1.00000000E+00  2.54938145E-02  1.90373109E-01  8.52161486E-01
  1.00000000E+00  1.00000000E+00  1.00000000E+00  1.00000000E+00  2.54938145E-02
  1.90373109E-01  8.52161486E-01  1.00000000E+00  1.00000000E+00  1.00000000E+00
  1.00000000E+00  2.54938145E-02  1.90373109E-01  8.52161486E-01  1.00000000E+00
  1.00000000E+00  1.00000000E+00  1.00000000E+00  2.54938145E-02  1.90373109E-01
  8.52161486E-01  1.00000000E+00  1.00000000E+00  1.00000000E+00  1.00000000E+00
  2.54938145E-02  1.90373109E-01  8.52161486E-01  1.00000000E+00  1.00000000E+00
  1.00000000E+00  1.00000000E+00  2.54938145E-02  1.90373109E-01  8.52161486E-01
  1.00000000E+00  1.00000000E+00  1.00000000E+00  1.00000000E+00  2.54938145E-02
  1.90373109E-01  8.52161486E-01  1.00000000E+00  1.00000000E+00  1.00000000E+00
  1.00000000E+00  7.38000247E-04  5.71800191E-03  2.94950099E-02  1.17286039E-01
  3.62949121E-01  5.84149195E-01  1.34176973E-01  6.24249876E-01  2.91755942E-01
  1.00000000E+00  1.00000000E+00  1.00000000E+00  1.00000000E+00  1.00000000E+00
  3.66556935E-03  2.83679194E-02  1.24756603E-01  3.39654631E-01  7.47585963E-01
 -1.57224381E+00  9.92388882E-01  1.00000000E+00  1.00000000E+00  1.00000000E+00
  1.00000000E+00
P(S=P) Contraction coefficients            R   N=         126
  0.00000000E+00  0.00000000E+00  0.00000000E+00  0.00000000E+00  0.00000000E+00
  0.00000000E+00  4.02486927E-02  2.37593957E-01  8.15853851E-01  1.00000000E+00
  1.00000000E+00  1.00000000E+00  0.00000000E+00  0.00000000E+00  0.00000000E+00
  0.00000000E+00  0.00000000E+00  0.00000000E+00  0.00000000E+00  4.02486927E-02
  2.37593957E-01  8.15853851E-01  1.00000000E+00  1.00000000E+00  1.00000000E+00
  0.00000000E+00  0.00000000E+00  0.00000000E+00  0.00000000E+00  0.00000000E+00
  0.00000000E+00  0.00000000E+00  4.02486927E-02  2.37593957E-01  8.15853851E-01
  1.00000000E+00  1.00000000E+00  1.00000000E+00  0.00000000E+00  0.00000000E+00
  0.00000000E+00  0.00000000E+00  0.00000000E+00  0.00000000E+00  0.00000000E+00
  4.02486927E-02  2.37593957E-01  8.15853851E-01  1.00000000E+00  1.00000000E+00
  1.00000000E+00  0.00000000E+00  0.00000000E+00  0.00000000E+00  0.00000000E+00
  0.00000000E+00  0.00000000E+00  0.00000000E+00  0.00000000E+00  0.00000000E+00
  0.00000000E+00  0.00000000E+00  0.00000000E+00  0.00000000E+00  0.00000000E+00
  0.00000000E+00  0.00000000E+00  0.00000000E+00  0.00000000E+00  0.00000000E+00
  0.00000000E+00  0.00000000E+00  0.00000000E+00  0.00000000E+00  0.00000000E+00
  0.00000000E+00  0.00000000E+00  0.00000000E+00  0.00000000E+00  0.00000000E+00
  0.00000000E+00  0.00000000E+00  0.00000000E+00  0.00000000E+00  0.00000000E+00
  0.00000000E+00  0.00000000E+00  0.00000000E+00  0.00000000E+00  0.00000000E+00
  0.00000000E+00  0.00000000E+00  0.00000000E+00  0.00000000E+00  0.00000000E+00
  0.00000000E+00  0.00000000E+00  0.00000000E+00  0.00000000E+00  0.00000000E+00
  0.00000000E+00  0.00000000E+00  0.00000000E+00  0.00000000E+00  0.00000000E+00
  0.00000000E+00  0.00000000E+00  0.00000000E+00  0.00000000E+00  0.00000000E+00
  0.00000000E+00  0.00000000E+00  0.00000000E+00  0.00000000E+00  1.00000000E+00
  0.00000000E+00  0.00000000E+00  0.00000000E+00  0.00000000E+00  0.00000000E+00
  0.00000000E+00  0.00000000E+00  0.00000000E+00  0.00000000E+00  0.00000000E+00
  0.00000000E+00
Coordinates of each shell                  R   N=         216
 -8.85701386E-01  3.31448840E+00 -7.76389108E-02 -8.85701386E-01  3.31448840E+00
 -7.76389108E-02 -8.85701386E-01  3.31448840E+00 -7.76389108E-02 -8.85701386E-01
  3.31448840E+00 -7.76389108E-02 -8.85701386E-01  3.31448840E+00 -7.76389108E-02
 -8.85701386E-01  3.31448840E+00 -7.76389108E-02 -1.15938133E-02  6.61829361E-01
  6.09899279E-01 -1.15938133E-02  6.61829361E-01  6.09899279E-01 -1.15938133E-02
  6.61829361E-01  6.09899279E-01 -1.15938133E-02  6.61829361E-01  6.09899279E-01
 -1.15938133E-02  6.61829361E-01  6.09899279E-01 -1.15938133E-02  6.61829361E-01
  6.09899279E-01  2.27691307E+00 -1.82316879E-01 -8.19224458E-01  2.27691307E+00
 -1.82316879E-01 -8.19224458E-01  2.27691307E+00 -1.82316879E-01 -8.19224458E-01
  2.27691307E+00 -1.82316879E-01 -8.19224458E-01  2.27691307E+00 -1.82316879E-01
 -8.19224458E-01  2.27691307E+00 -1.82316879E-01 -8.19224458E-01  4.40937321E+00
 -9.41686783E-01  2.96620518E-01  4.40937321E+00 -9.41686783E-01  2.96620518E-01
  4.40937321E+00 -9.41686783E-01  2.96620518E-01  4.40937321E+00 -9.41686783E-01
  2.96620518E-01  4.40937321E+00 -9.41686783E-01  2.96620518E-01  4.40937321E+00
 -9.41686783E-01  2.96620518E-01  4.58528765E+00 -1.04067178E+00  2.29595876E+00
  4.58528765E+00 -1.04067178E+00  2.29595876E+00  4.58528765E+00 -1.04067178E+00
  2.29595876E+00  4.58528765E+00 -1.04067178E+00  2.29595876E+00  4.58528765E+00
 -1.04067178E+00  2.29595876E+00 -2.59845469E+00  3.82117454E+00  9.62029883E-01
 -2.59845469E+00  3.82117454E+00  9.62029883E-01 -2.59845469E+00  3.82117454E+00
  9.62029883E-01 -2.59845469E+00  3.82117454E+00  9.62029883E-01 -2.59845469E+00
  3.82117454E+00  9.62029883E-01  6.03917347E+00 -1.48946316E+00 -8.05025736E-01
  6.03917347E+00 -1.48946316E+00 -8.05025736E-01  6.03917347E+00 -1.48946316E+00
 -8.05025736E-01  6.03917347E+00 -1.48946316E+00 -8.05025736E-01  6.03917347E+00
 -1.48946316E+00 -8.05025736E-01  2.14165838E+00 -1.19835581E-01 -2.72678789E+00
  2.14165838E+00 -1.19835581E-01 -2.72678789E+00  2.14165838E+00 -1.19835581E-01
 -2.72678789E+00  2.14165838E+00 -1.19835581E-01 -2.72678789E+00  2.14165838E+00
 -1.19835581E-01 -2.72678789E+00  2.96404836E-01  4.85364023E-01  2.66043343E+00
  2.96404836E-01  4.85364023E-01  2.66043343E+00  2.96404836E-01  4.85364023E-01
  2.66043343E+00  2.96404836E-01  4.85364023E-01  2.66043343E+00  2.96404836E-01
  4.85364023E-01  2.66043343E+00 -1.27451725E+00  3.46027625E+00 -2.08936986E+00
 -1.27451725E+00  3.46027625E+00 -2.08936986E+00 -1.27451725E+00  3.46027625E+00
 -2.08936986E+00 -1.27451725E+00  3.46027625E+00 -2.08936986E+00 -1.27451725E+00
  3.46027625E+00 -2.08936986E+00  6.05205190E-01  4.66838585E+00  4.01927643E-01
  6.05205190E-01  4.66838585E+00  4.01927643E-01  6.05205190E-01  4.66838585E+00
  4.01927643E-01  6.05205190E-01  4.66838585E+00  4.01927643E-01  6.05205190E-01
  4.66838585E+00  4.01927643E-01 -2.61933554E+00 -1.58230087E+00 -4.45355766E-02
 -2.61933554E+00 -1.58230087E+00 -4.45355766E-02 -2.61933554E+00 -1.58230087E+00
 -4.45355766E-02 -2.61933554E+00 -1.58230087E+00 -4.45355766E-02 -2.61933554E+00
 -1.58230087E+00 -4.45355766E-02 -2.61933554E+00 -1.58230087E+00 -4.45355766E-02
 -2.61933554E+00 -1.58230087E+00 -4.45355766E-02 -2.61933554E+00 -1.58230087E+00
 -4.45355766E-02 -2.61933554E+00 -1.58230087E+00 -4.45355766E-02 -2.61933554E+00
 -1.58230087E+00 -4.45355766E-02 -2.61933554E+00 -1.58230087E+00 -4.45355766E-02
 -2.61933554E+00 -1.58230087E+00 -4.45355766E-02 -2.61933554E+00 -1.58230087E+00
 -4.45355766E-02
Constraint Structure                       R   N=          36
 -8.85701386E-01  3.31448840E+00 -7.76389108E-02 -1.15938133E-02  6.61829361E-01
  6.09899279E-01  2.27691307E+00 -1.82316879E-01 -8.19224458E-01  4.40937321E+00
 -9.41686783E-01  2.96620518E-01  4.58528765E+00 -1.04067178E+00  2.29595876E+00
 -2.59845469E+00  3.82117454E+00  9.62029883E-01  6.03917347E+00 -1.48946316E+00
 -8.05025736E-01  2.14165838E+00 -1.19835581E-01 -2.72678789E+00  2.96404836E-01
  4.85364023E-01  2.66043343E+00 -1.27451725E+00  3.46027625E+00 -2.08936986E+00
  6.05205190E-01  4.66838585E+00  4.01927643E-01 -2.61933554E+00 -1.58230087E+00
 -4.45355766E-02
Num ILSW                                   I              100
ILSW                                       I   N=         100
           0           0           0           0           2           0
           0           0           0           0         402          -1
           5           0           0           0           0           0
           0           0           0           0           0           0
           1           0           0           0           0           0
           0           0      100000           0          -1           0
           0           0           0           0           0           0
           0           0           0           1           0           0
           0           0           1           0           0           0
           0           0           4          41           0           0
           0           0           5           0           0           0
           0           0           0           0           0           0
           0           0           0           0           0           0
           0           0           0           0           0           0
           0           0           0           0           0           0
           0           0           0           0           0           0
           0           0           0           0
Num RLSW                                   I               41
RLSW                                       R   N=          41
  8.00000000E-01  7.20000000E-01  1.00000000E+00  8.10000000E-01  2.00000000E-01
  0.00000000E+00  0.00000000E+00  1.00000000E+00  0.00000000E+00  0.00000000E+00
  0.00000000E+00  0.00000000E+00  1.00000000E+00  0.00000000E+00  0.00000000E+00
  0.00000000E+00  0.00000000E+00  1.00000000E+00  0.00000000E+00  0.00000000E+00
  0.00000000E+00  0.00000000E+00  1.00000000E+00  0.00000000E+00  0.00000000E+00
  0.00000000E+00  0.00000000E+00  1.00000000E+00  0.00000000E+00  0.00000000E+00
  0.00000000E+00  0.00000000E+00  0.00000000E+00  0.00000000E+00  0.00000000E+00
  0.00000000E+00  0.00000000E+00  0.00000000E+00  1.00000000E+00  1.00000000E+00
  0.00000000E+00
MxBond                                     I                4
NBond                                      I   N=          12
           4           4           3           3           1           1
           1           1           1           1           1           1
IBond                                      I   N=          48
           2           6          10          11           1           3
           9          12           2           4           8           0
           3           5           7           0           4           0
           0           0           1           0           0           0
           4           0           0           0           3           0
           0           0           2           0           0           0
           1           0           0           0           1           0
           0           0           2           0           0           0
RBond                                      R   N=          48
  1.00000000E+00  1.00000000E+00  1.00000000E+00  1.00000000E+00  1.00000000E+00
  1.00000000E+00  1.00000000E+00  1.00000000E+00  1.00000000E+00  2.00000000E+00
  1.00000000E+00  0.00000000E+00  2.00000000E+00  1.00000000E+00  1.00000000E+00
  0.00000000E+00  1.00000000E+00  0.00000000E+00  0.00000000E+00  0.00000000E+00
  1.00000000E+00  0.00000000E+00  0.00000000E+00  0.00000000E+00  1.00000000E+00
  0.00000000E+00  0.00000000E+00  0.00000000E+00  1.00000000E+00  0.00000000E+00
  0.00000000E+00  0.00000000E+00  1.00000000E+00  0.00000000E+00  0.00000000E+00
  0.00000000E+00  1.00000000E+00  0.00000000E+00  0.00000000E+00  0.00000000E+00
  1.00000000E+00  0.00000000E+00  0.00000000E+00  0.00000000E+00  1.00000000E+00
  0.00000000E+00  0.00000000E+00  0.00000000E+00
Virial Ratio                               R      2.002851760245731E+00
SCF Energy                                 R     -6.168912856168665E+02
Total Energy                               R     -6.168912856168665E+02
RMS Density                                R      5.820016723684317E-12
Nuclear derivative order                   I                0
External E-field                           R   N=          35
  0.00000000E+00  0.00000000E+00  0.00000000E+00  0.00000000E+00  0.00000000E+00
  0.00000000E+00  0.00000000E+00  0.00000000E+00  0.00000000E+00  0.00000000E+00
  0.00000000E+00  0.00000000E+00  0.00000000E+00  0.00000000E+00  0.00000000E+00
  0.00000000E+00  0.00000000E+00  0.00000000E+00  0.00000000E+00  0.00000000E+00
  0.00000000E+00  0.00000000E+00  0.00000000E+00  0.00000000E+00  0.00000000E+00
  0.00000000E+00  0.00000000E+00  0.00000000E+00  0.00000000E+00  0.00000000E+00
  0.00000000E+00  0.00000000E+00  0.00000000E+00  0.00000000E+00  0.00000000E+00
IOpCl                                      I                0
IROHF                                      I                0
Alpha Orbital Energies                     R   N=         167
 -1.01533971E+02 -1.02478484E+01 -1.01871685E+01 -1.01817415E+01 -1.01810750E+01
 -9.44840546E+00 -7.21273112E+00 -7.20333198E+00 -7.20316412E+00 -8.67494547E-01
 -7.88161544E-01 -7.42482583E-01 -6.40390010E-01 -5.86557996E-01 -4.86408365E-01
 -4.77787066E-01 -4.45117012E-01 -4.16997012E-01 -4.07078266E-01 -3.77349793E-01
 -3.67606285E-01 -3.05733252E-01 -2.98335146E-01 -2.79692298E-01 -3.31893180E-02
 -7.77460416E-03  6.55282227E-03  8.58381502E-03  2.21726753E-02  2.84311708E-02
  3.87829624E-02  4.14339081E-02  6.36002904E-02  6.58020456E-02  7.29276547E-02
  8.38968819E-02  8.79493044E-02  9.89747339E-02  1.11864495E-01  1.16635092E-01
  1.18889119E-01  1.21780600E-01  1.30557786E-01  1.31098911E-01  1.35625339E-01
  1.42317957E-01  1.50388354E-01  1.57108329E-01  1.61475207E-01  1.65115989E-01
  1.73376084E-01  1.88447804E-01  1.92686733E-01  2.14708733E-01  2.20052496E-01
  2.32960669E-01  2.47681047E-01  2.62352879E-01  2.74008506E-01  2.92083828E-01
  3.41825976E-01  3.62191222E-01  3.89158708E-01  4.24814943E-01  4.30534709E-01
  4.47206082E-01  4.59951842E-01  4.79300626E-01  4.87967570E-01  4.96210929E-01
  5.25218550E-01  5.31061178E-01  5.69280808E-01  5.88912648E-01  5.98646821E-01
  6.24984232E-01  6.38504929E-01  6.47920862E-01  6.58061571E-01  6.64449135E-01
  6.96060908E-01  7.10482113E-01  7.36708278E-01  7.46080566E-01  7.87304062E-01
  8.18133419E-01  8.39326975E-01  8.62048147E-01  8.91478684E-01  9.03047857E-01
  9.43585324E-01  9.62533782E-01  1.00627669E+00  1.03320096E+00  1.06623262E+00
  1.08526261E+00  1.12833545E+00  1.17735972E+00  1.19875022E+00  1.29126539E+00
  1.39742221E+00  1.43652587E+00  1.45267608E+00  1.47259398E+00  1.50930593E+00
  1.54431553E+00  1.56423920E+00  1.58672461E+00  1.59561668E+00  1.63370468E+00
  1.66888221E+00  1.69631972E+00  1.70657100E+00  1.72559853E+00  1.77604175E+00
  1.80981510E+00  1.87910002E+00  1.88859144E+00  1.93613214E+00  1.98651484E+00
  2.02153522E+00  2.07891941E+00  2.11969692E+00  2.19168560E+00  2.20095372E+00
  2.21279806E+00  2.26295495E+00  2.29986055E+00  2.30753223E+00  2.36222894E+00
  2.37560549E+00  2.45682891E+00  2.47608720E+00  2.49792885E+00  2.54083683E+00
  2.56376859E+00  2.57727496E+00  2.59113553E+00  2.60027435E+00  2.65157441E+00
  2.73540981E+00  2.74577416E+00  2.75645291E+00  2.81314721E+00  2.85914208E+00
  2.86574323E+00  2.93320136E+00  3.08203940E+00  3.12380887E+00  3.18937129E+00
  3.40640883E+00  3.51629828E+00  3.75038730E+00  3.79434727E+00  3.80038169E+00
  4.03590758E+00  4.12648036E+00  4.29386150E+00  9.75625437E+00  2.37495049E+01
  2.38227319E+01  2.39463850E+01  2.42651367E+01  2.59312710E+01  2.59740663E+01
  2.64462414E+01  2.15746122E+02
Alpha MO coefficients                      R   N=       27889
  1.89703793E-07 -4.09661127E-07  2.67577325E-06 -2.17947238E-06  1.28376484E-06
  6.33866258E-07 -1.97227275E-05  1.53720090E-05 -9.89541484E-06  1.44475524E-05
 -3.74320172E-05  2.91981317E-05 -2.31183015E-05 -1.67164901E-03  1.49774092E-04
  5.05216183E-04 -3.63941945E-05  7.79889762E-06 -3.05500570E-06  4.69929219E-06
  1.30241503E-05 -3.53511827E-07  1.44942255E-06 -2.98239529E-06 -1.22373355E-05
 -1.19413776E-05 -5.26375381E-06 -1.63898321E-05  1.41680294E-05  1.93309759E-05
  1.83722609E-05  1.74890679E-04 -1.26965393E-04 -1.21895772E-04  6.54593517E-06
  3.71624749E-03  4.78438063E-04  4.58983425E-04 -8.24632344E-04  9.09027000E-06
 -1.65679072E-06 -3.27967919E-06 -2.47591503E-06 -8.00249215E-06 -3.96532196E-07
  1.19830261E-06 -3.91253214E-06 -2.49997232E-06  4.18149089E-06 -3.12865792E-06
  2.23820415E-05  9.83625367E-06 -3.11893492E-05  2.19909534E-05 -1.01875979E-05
 -1.14659425E-05  5.78533501E-05 -1.15981926E-03  1.19860456E-03 -3.80411094E-04
  9.11979359E-05  8.63473776E-06  7.11362542E-06  5.92703401E-06  6.86182816E-07
  4.43621684E-06  3.27202695E-07 -9.71125272E-07  1.84293631E-06  6.11416386E-07
 -6.08037836E-07  9.63800342E-06 -9.04395734E-06 -2.05397256E-06 -2.72806667E-06
 -6.06320897E-05  8.50237955E-05 -1.99498794E-05 -5.87337475E-05 -1.62671451E-03
  3.29993837E-04 -1.77171779E-04  1.29126006E-04 -5.21523205E-06 -1.32779753E-06
  3.41127212E-06 -1.83633259E-06  1.64692961E-06 -2.93385274E-06  3.58997623E-05
  5.79857867E-05  4.22620747E-05 -6.79448821E-06 -8.78889238E-09 -6.58478786E-06
  1.23601181E-05 -8.36122260E-05  7.89594855E-05  2.24722478E-04 -8.06544933E-06
  1.31528112E-05  1.10936239E-05  2.32764395E-06 -2.01258635E-05 -4.96265412E-05
 -1.26986591E-04  7.62939748E-07 -1.96903131E-07 -1.04903433E-06  4.20712815E-06
 -4.49954897E-05  6.68714174E-05  1.54067518E-04  1.09899734E-05  2.37830188E-06
 -1.73853790E-05 -8.07054379E-07 -6.04950208E-05 -1.16238082E-04  1.19355276E-04
  6.64003775E-06  2.11308529E-06  1.57142940E-05  1.01327939E-05 -6.49140773E-05
 -1.82356639E-05  7.98027705E-05  4.62717787E-06  1.24829913E-05 -1.56492173E-05
 -7.83142085E-06  3.91667885E-05 -1.35611460E-04 -3.08338128E-04 -4.52413060E-07
 -5.12204021E-06  6.22753687E-07  4.11609654E-01  6.54076174E-01  1.50039570E-02