 Entering Gaussian System, Link 0=g09
 Input=input.dat
 Output=output.dat
 Initial command:
 /cerebro/home/software/apps/g09/l1.exe /scratch/crawdad/Gau-27076.inp -scrdir=/scratch/crawdad/
 Entering Link 1 = /cerebro/home/software/apps/g09/l1.exe PID=     27077.
  
 Copyright (c) 1988,1990,1992,1993,1995,1998,2003,2009, Gaussian, Inc.
                  All Rights Reserved.
  
 This is part of the Gaussian(R) 09 program.  It is based on
 the Gaussian(R) 03 system (copyright 2003, Gaussian, Inc.),
 the Gaussian(R) 98 system (copyright 1998, Gaussian, Inc.),
 the Gaussian(R) 94 system (copyright 1995, Gaussian, Inc.),
 the Gaussian 92(TM) system (copyright 1992, Gaussian, Inc.),
 the Gaussian 90(TM) system (copyright 1990, Gaussian, Inc.),
 the Gaussian 88(TM) system (copyright 1988, Gaussian, Inc.),
 the Gaussian 86(TM) system (copyright 1986, Carnegie Mellon
 University), and the Gaussian 82(TM) system (copyright 1983,
 Carnegie Mellon University). Gaussian is a federally registered
 trademark of Gaussian, Inc.
  
 This software contains proprietary and confidential information,
 including trade secrets, belonging to Gaussian, Inc.
  
 This software is provided under written license and may be
 used, copied, transmitted, or stored only in accord with that
 written license.
  
 The following legend is applicable only to US Government
 contracts under FAR:
  
                    RESTRICTED RIGHTS LEGEND
  
 Use, reproduction and disclosure by the US Government is
 subject to restrictions as set forth in subparagraphs (a)
 and (c) of the Commercial Computer Software - Restricted
 Rights clause in FAR 52.227-19.
  
 Gaussian, Inc.
 340 Quinnipiac St., Bldg. 40, Wallingford CT 06492
  
  
 ---------------------------------------------------------------
 Warning -- This program may not be used in any manner that
 competes with the business of Gaussian, Inc. or will provide
 assistance to any competitor of Gaussian, Inc.  The licensee
 of this program is prohibited from giving any competitor of
 Gaussian, Inc. access to this program.  By using this program,
 the user acknowledges that Gaussian, Inc. is engaged in the
 business of creating and licensing software in the field of
 computational chemistry and represents and warrants to the
 licensee that it is not a competitor of Gaussian, Inc. and that
 it will not use this program in any manner prohibited above.
 ---------------------------------------------------------------
  

 Cite this work as:
 Gaussian 09, Revision A.02,
 M. J. Frisch, G. W. Trucks, H. B. Schlegel, G. E. Scuseria, 
 M. A. Robb, J. R. Cheeseman, G. Scalmani, V. Barone, B. Mennucci, 
 G. A. Petersson, H. Nakatsuji, M. Caricato, X. Li, H. P. Hratchian, 
 A. F. Izmaylov, J. Bloino, G. Zheng, J. L. Sonnenberg, M. Hada, 
 M. Ehara, K. Toyota, R. Fukuda, J. Hasegawa, M. Ishida, T. Nakajima, 
 Y. Honda, O. Kitao, H. Nakai, T. Vreven, J. A. Montgomery, Jr., 
 J. E. Peralta, F. Ogliaro, M. Bearpark, J. J. Heyd, E. Brothers, 
 K. N. Kudin, V. N. Staroverov, R. Kobayashi, J. Normand, 
 K. Raghavachari, A. Rendell, J. C. Burant, S. S. Iyengar, J. Tomasi, 
 M. Cossi, N. Rega, J. M. Millam, M. Klene, J. E. Knox, J. B. Cross, 
 V. Bakken, C. Adamo, J. Jaramillo, R. Gomperts, R. E. Stratmann, 
 O. Yazyev, A. J. Austin, R. Cammi, C. Pomelli, J. W. Ochterski, 
 R. L. Martin, K. Morokuma, V. G. Zakrzewski, G. A. Voth, 
 P. Salvador, J. J. Dannenberg, S. Dapprich, A. D. Daniels, 
 O. Farkas, J. B. Foresman, J. V. Ortiz, J. Cioslowski, 
 and D. J. Fox, Gaussian, Inc., Wallingford CT, 2009.
 
 ******************************************
 Gaussian 09:  EM64L-G09RevA.02 11-Jun-2009
                10-Jul-2013 
 ******************************************
 %chk=vibave
 %mem=1000mb
 %nproc=1
 Will use up to    1 processors via shared memory.
 ----------------------------------------------------------------------
 #P B3LYP/6-311++G** scf(conver=11) int=ultrafine polar=optrot cphf(rdf
 req,conver=11)
 ----------------------------------------------------------------------
 1/38=1,83=21/1;
 2/12=2,17=6,18=5,40=1/2;
 3/5=4,6=6,7=1111,11=2,16=1,25=1,30=1,36=2,74=-5,75=-5/1,2,3;
 4//1;
 5/5=2,6=11,38=5,96=-2,98=1/2;
 8/6=4,10=90,11=11/1;
 10/6=1,7=11,13=10,46=8,60=-2,72=3/2;
 6/7=2,8=2,9=2,10=2,28=1/1;
 99/5=1,9=1/99;
 Leave Link    1 at Wed Jul 10 17:19:08 2013, MaxMem=  131072000 cpu:       0.0
 (Enter /cerebro/home/software/apps/g09/l101.exe)
 -----------------------------
 (R)-3-chloro-1-butene tau=120
 -----------------------------
 Symbolic Z-matrix:
 Charge =  0 Multiplicity = 1
 C                     0.51119   1.74298   0.01836 
 C                    -0.0179    0.34549  -0.28424 
 C                    -1.22887  -0.12139   0.4648 
 C                    -2.33318  -0.50276  -0.17907 
 H                    -2.38051  -0.49004  -1.26699 
 H                     1.4464    1.90751  -0.52998 
 H                    -3.22229  -0.84019   0.34624 
 H                    -1.17024  -0.14461   1.55165 
 H                    -0.2092    0.24592  -1.35289 
 H                     0.70624   1.87456   1.0864 
 H                    -0.2177    2.50088  -0.29945 
 Cl                    1.38396  -0.8183    0.01596 
 
 NAtoms=     12 NQM=     12 NQMF=      0 NMic=      0 NMicF=      0 NTot=     12.
                    Isotopes and Nuclear Properties:
 (Nuclear quadrupole moments (NQMom) in fm**2, nuclear magnetic moments (NMagM)
  in nuclear magnetons)

  Atom         1           2           3           4           5           6           7           8           9          10
 IAtWgt=          12          12          12          12           1           1           1           1           1           1
 AtmWgt=  12.0000000  12.0000000  12.0000000  12.0000000   1.0078250   1.0078250   1.0078250   1.0078250   1.0078250   1.0078250
 NucSpn=           0           0           0           0           1           1           1           1           1           1
 AtZEff=   0.0000000   0.0000000   0.0000000   0.0000000   0.0000000   0.0000000   0.0000000   0.0000000   0.0000000   0.0000000
 NQMom=    0.0000000   0.0000000   0.0000000   0.0000000   0.0000000   0.0000000   0.0000000   0.0000000   0.0000000   0.0000000
 NMagM=    0.0000000   0.0000000   0.0000000   0.0000000   2.7928460   2.7928460   2.7928460   2.7928460   2.7928460   2.7928460

  Atom        11          12
 IAtWgt=           1          35
 AtmWgt=   1.0078250  34.9688527
 NucSpn=           1           3
 AtZEff=   0.0000000   0.0000000
 NQMom=    0.0000000  -8.1650000
 NMagM=    2.7928460   0.8218740
 Using perturbation frequencies:    0.071980    0.077357    0.104503    0.128347
 Leave Link  101 at Wed Jul 10 17:19:09 2013, MaxMem=  131072000 cpu:       0.2
 (Enter /cerebro/home/software/apps/g09/l202.exe)
                          Input orientation:                          
 ---------------------------------------------------------------------
 Center     Atomic      Atomic             Coordinates (Angstroms)
 Number     Number       Type             X           Y           Z
 ---------------------------------------------------------------------
      1          6           0        0.511187    1.742979    0.018361
      2          6           0       -0.017900    0.345488   -0.284243
      3          6           0       -1.228868   -0.121390    0.464803
      4          6           0       -2.333182   -0.502756   -0.179071
      5          1           0       -2.380508   -0.490043   -1.266990
      6          1           0        1.446405    1.907508   -0.529982
      7          1           0       -3.222289   -0.840192    0.346244
      8          1           0       -1.170244   -0.144614    1.551652
      9          1           0       -0.209200    0.245923   -1.352886
     10          1           0        0.706237    1.874561    1.086397
     11          1           0       -0.217705    2.500877   -0.299450
     12         17           0        1.383962   -0.818303    0.015962
 ---------------------------------------------------------------------
                    Distance matrix (angstroms):
                    1          2          3          4          5
     1  C    0.000000
     2  C    1.524626   0.000000
     3  C    2.589010   1.498495   0.000000
     4  C    3.629427   2.468017   1.333987   0.000000
     5  H    3.873037   2.691807   2.112176   1.089022   0.000000
     6  H    1.096532   2.155106   3.501872   4.496419   4.575664
     7  H    4.551826   3.474401   2.122371   1.086430   1.853031
     8  H    2.956552   2.222298   1.088678   2.115678   3.086877
     9  H    2.154172   1.090187   2.116278   2.539618   2.294254
    10  H    1.093645   2.177405   2.848655   4.060925   4.545084
    11  H    1.098497   2.164684   2.912527   3.675805   3.815686
    12  Cl   2.705903   1.846551   2.741173   3.735608   3.990609
                    6          7          8          9         10
     6  H    0.000000
     7  H    5.487652   0.000000
     8  H    3.923169   2.479461   0.000000
     9  H    2.485773   3.625658   3.084229   0.000000
    10  H    1.778092   4.832290   2.795481   3.072555   0.000000
    11  H    1.781710   4.539514   3.366383   2.488899   1.779469
    12  Cl   2.780648   4.618129   3.055515   2.354674   2.976015
                   11         12
    11  H    0.000000
    12  Cl   3.698889   0.000000
 Stoichiometry    C4H7Cl
 Framework group  C1[X(C4H7Cl)]
 Deg. of freedom    30
 Full point group                 C1      NOp   1
 Largest Abelian subgroup         C1      NOp   1
 Largest concise Abelian subgroup C1      NOp   1
                         Standard orientation:                         
 ---------------------------------------------------------------------
 Center     Atomic      Atomic             Coordinates (Angstroms)
 Number     Number       Type             X           Y           Z
 ---------------------------------------------------------------------
      1          6           0        0.562926    1.727756    0.037375
      2          6           0       -0.008561    0.350201   -0.279215
      3          6           0       -1.233559   -0.086837    0.465006
      4          6           0       -2.348763   -0.427783   -0.182757
      5          1           0       -2.395231   -0.402782   -1.270500
      6          1           0        1.502966    1.869041   -0.509201
      7          1           0       -3.247997   -0.743068    0.339071
      8          1           0       -1.176119   -0.122680    1.551577
      9          1           0       -0.202380    0.267198   -1.348819
     10          1           0        0.761473    1.842651    1.106691
     11          1           0       -0.142297    2.510740   -0.272935
     12         17           0        1.356902   -0.858890    0.009510
 ---------------------------------------------------------------------
 Rotational constants (GHZ):      5.6200596      2.7295516      2.0052010
 Leave Link  202 at Wed Jul 10 17:19:09 2013, MaxMem=  131072000 cpu:       0.0
 (Enter /cerebro/home/software/apps/g09/l301.exe)
 Standard basis: 6-311++G(d,p) (5D, 7F)
 Ernie: Thresh=  0.10000D-02 Tol=  0.10000D-05 Strict=F.
 There are   167 symmetry adapted basis functions of A   symmetry.
 Integral buffers will be    131072 words long.
 Raffenetti 2 integral format.
 Two-electron integral symmetry is turned on.
   167 basis functions,   260 primitive gaussians,   172 cartesian basis functions
    24 alpha electrons       24 beta electrons
       nuclear repulsion energy       211.7281874398 Hartrees.
 IExCor=  402 DFT=T Ex+Corr=B3LYP ExCW=0 ScaHFX=  0.200000
 ScaDFX=  0.800000  0.720000  1.000000  0.810000 ScalE2=  1.000000  1.000000
 IRadAn=      5 IRanWt=     -1 IRanGd=            0 ICorTp=0
 NAtoms=   12 NActive=   12 NUniq=   12 SFac= 7.50D-01 NAtFMM=   80 NAOKFM=F Big=F
 Leave Link  301 at Wed Jul 10 17:19:09 2013, MaxMem=  131072000 cpu:       0.1
 (Enter /cerebro/home/software/apps/g09/l302.exe)
 NPDir=0 NMtPBC=     1 NCelOv=     1 NCel=       1 NClECP=     1 NCelD=      1
         NCelK=      1 NCelE2=     1 NClLst=     1 CellRange=     0.0.
 One-electron integrals computed using PRISM.
 NBasis=   167 RedAO= T  NBF=   167
 NBsUse=   167 1.00D-06 NBFU=   167
 Precomputing XC quadrature grid using
 IXCGrd= 2 IRadAn=           5 IRanWt=          -1 IRanGd=           0 AccXCQ= 1.00D-10.
 NRdTot=    1019 NPtTot=      274288 NUsed=      281590 NTot=      281622
 NSgBfM=   172   172   172   172   172 NAtAll=    12    12.
 Leave Link  302 at Wed Jul 10 17:19:09 2013, MaxMem=  131072000 cpu:       0.7
 (Enter /cerebro/home/software/apps/g09/l303.exe)
 DipDrv:  MaxL=2.
 Leave Link  303 at Wed Jul 10 17:19:10 2013, MaxMem=  131072000 cpu:       0.1
 (Enter /cerebro/home/software/apps/g09/l401.exe)
 Harris functional with IExCor=  402 diagonalized for initial guess.
 ExpMin= 3.60D-02 ExpMax= 1.06D+05 ExpMxC= 3.62D+03 IAcc=3 IRadAn=         5 AccDes= 0.00D+00
 HarFok:  IExCor=  402 AccDes= 0.00D+00 IRadAn=         5 IDoV= 1
 ScaDFX=  1.000000  1.000000  1.000000  1.000000
 FoFCou: FMM=F IPFlag=           0 FMFlag=      100000 FMFlg1=           0
         NFxFlg=           0 DoJE=T BraDBF=F KetDBF=T FulRan=T
         Omega=  0.000000  0.000000  1.000000  0.000000  0.000000 ICntrl=     500 IOpCl=  0
         NMat0=    1 NMatS0=    1 NMatT0=    0 NMatD0=    1 NMtDS0=    0 NMtDT0=    0
         I1Cent=           4 NGrid=           0.
 Petite list used in FoFCou.
 Harris En= -616.910753141260    
 Initial guess orbital symmetries:
       Occupied  (A) (A) (A) (A) (A) (A) (A) (A) (A) (A) (A) (A)
                 (A) (A) (A) (A) (A) (A) (A) (A) (A) (A) (A) (A)
       Virtual   (A) (A) (A) (A) (A) (A) (A) (A) (A) (A) (A) (A)
                 (A) (A) (A) (A) (A) (A) (A) (A) (A) (A) (A) (A)
                 (A) (A) (A) (A) (A) (A) (A) (A) (A) (A) (A) (A)
                 (A) (A) (A) (A) (A) (A) (A) (A) (A) (A) (A) (A)
                 (A) (A) (A) (A) (A) (A) (A) (A) (A) (A) (A) (A)
                 (A) (A) (A) (A) (A) (A) (A) (A) (A) (A) (A) (A)
                 (A) (A) (A) (A) (A) (A) (A) (A) (A) (A) (A) (A)
                 (A) (A) (A) (A) (A) (A) (A) (A) (A) (A) (A) (A)
                 (A) (A) (A) (A) (A) (A) (A) (A) (A) (A) (A) (A)
                 (A) (A) (A) (A) (A) (A) (A) (A) (A) (A) (A) (A)
                 (A) (A) (A) (A) (A) (A) (A) (A) (A) (A) (A) (A)
                 (A) (A) (A) (A) (A) (A) (A) (A) (A) (A) (A)
 The electronic state of the initial guess is 1-A.
 Leave Link  401 at Wed Jul 10 17:19:17 2013, MaxMem=  131072000 cpu:       7.5
 (Enter /cerebro/home/software/apps/g09/l502.exe)
 Closed shell SCF:
 Requested convergence on RMS density matrix=1.00D-11 within 128 cycles.
 Requested convergence on MAX density matrix=1.00D-09.
 Requested convergence on             energy=1.00D-09.
 No special actions if energy rises.
 Using DIIS extrapolation, IDIIS=  1040.
 Integral symmetry usage will be decided dynamically.
       281469 words used for storage of precomputed grid.
 Keep R1 ints in memory in canonical form, NReq=113664361.
 IEnd=      390694 IEndB=      390694 NGot=   131072000 MDV=    20042794
 LenX=    20042794 LenY=    20012769
 Symmetry not used in FoFDir.
 MinBra= 0 MaxBra= 2 Meth= 1.
 IRaf=       0 NMat=   1 IRICut=       1 DoRegI=T DoRafI=F ISym2E= 0 JSym2E=0.

 Cycle   1  Pass 1  IDiag  1:
 E= -616.724585530172    
 DIIS: error= 2.45D-02 at cycle   1 NSaved=   1.
 NSaved= 1 IEnMin= 1 EnMin= -616.724585530172     IErMin= 1 ErrMin= 2.45D-02
 ErrMax= 2.45D-02 EMaxC= 1.00D-01 BMatC= 2.02D-01 BMatP= 2.02D-01
 IDIUse=3 WtCom= 7.55D-01 WtEn= 2.45D-01
 Coeff-Com:  0.100D+01
 Coeff-En:   0.100D+01
 Coeff:      0.100D+01
 Gap=     0.398 Goal=   None    Shift=    0.000
 GapD=    0.398 DampG=1.000 DampE=0.500 DampFc=0.5000 IDamp=-1.
 Damping current iteration by 5.00D-01
 RMSDP=6.09D-03 MaxDP=1.62D-01              OVMax= 2.18D-01

 Cycle   2  Pass 1  IDiag  1:
 E= -616.795221537951     Delta-E=       -0.070636007780 Rises=F Damp=T
 DIIS: error= 6.36D-03 at cycle   2 NSaved=   2.
 NSaved= 2 IEnMin= 2 EnMin= -616.795221537951     IErMin= 2 ErrMin= 6.36D-03
 ErrMax= 6.36D-03 EMaxC= 1.00D-01 BMatC= 1.27D-02 BMatP= 2.02D-01
 IDIUse=3 WtCom= 9.36D-01 WtEn= 6.36D-02
 Coeff-Com:  0.369D-01 0.963D+00
 Coeff-En:   0.177D+00 0.823D+00
 Coeff:      0.458D-01 0.954D+00
 Gap=     0.286 Goal=   None    Shift=    0.000
 RMSDP=3.73D-03 MaxDP=1.45D-01 DE=-7.06D-02 OVMax= 1.24D-01

 Cycle   3  Pass 1  IDiag  1:
 E= -616.888738756756     Delta-E=       -0.093517218804 Rises=F Damp=F
 DIIS: error= 6.37D-03 at cycle   3 NSaved=   3.
 NSaved= 3 IEnMin= 3 EnMin= -616.888738756756     IErMin= 2 ErrMin= 6.36D-03
 ErrMax= 6.37D-03 EMaxC= 1.00D-01 BMatC= 5.05D-03 BMatP= 1.27D-02
 IDIUse=3 WtCom= 9.36D-01 WtEn= 6.37D-02
 Coeff-Com: -0.629D-01 0.345D+00 0.717D+00
 Coeff-En:   0.000D+00 0.000D+00 0.100D+01
 Coeff:     -0.589D-01 0.323D+00 0.735D+00
 Gap=     0.259 Goal=   None    Shift=    0.000
 RMSDP=1.62D-03 MaxDP=4.09D-02 DE=-9.35D-02 OVMax= 2.53D-02

 Cycle   4  Pass 1  IDiag  1:
 E= -616.892575799766     Delta-E=       -0.003837043010 Rises=F Damp=F
 DIIS: error= 3.47D-03 at cycle   4 NSaved=   4.
 NSaved= 4 IEnMin= 4 EnMin= -616.892575799766     IErMin= 4 ErrMin= 3.47D-03
 ErrMax= 3.47D-03 EMaxC= 1.00D-01 BMatC= 1.90D-03 BMatP= 5.05D-03
 IDIUse=3 WtCom= 9.65D-01 WtEn= 3.47D-02
 Coeff-Com: -0.371D-01 0.124D+00 0.444D+00 0.469D+00
 Coeff-En:   0.000D+00 0.000D+00 0.243D+00 0.757D+00
 Coeff:     -0.359D-01 0.119D+00 0.437D+00 0.479D+00
 Gap=     0.247 Goal=   None    Shift=    0.000
 RMSDP=4.97D-04 MaxDP=1.23D-02 DE=-3.84D-03 OVMax= 1.19D-02

 Cycle   5  Pass 1  IDiag  1:
 E= -616.894360503438     Delta-E=       -0.001784703672 Rises=F Damp=F
 DIIS: error= 6.05D-04 at cycle   5 NSaved=   5.
 NSaved= 5 IEnMin= 5 EnMin= -616.894360503438     IErMin= 5 ErrMin= 6.05D-04
 ErrMax= 6.05D-04 EMaxC= 1.00D-01 BMatC= 7.05D-05 BMatP= 1.90D-03
 IDIUse=3 WtCom= 9.94D-01 WtEn= 6.05D-03
 Coeff-Com: -0.136D-01 0.396D-01 0.181D+00 0.237D+00 0.556D+00
 Coeff-En:   0.000D+00 0.000D+00 0.000D+00 0.000D+00 0.100D+01
 Coeff:     -0.136D-01 0.394D-01 0.180D+00 0.236D+00 0.559D+00
 Gap=     0.247 Goal=   None    Shift=    0.000
 RMSDP=9.38D-05 MaxDP=3.21D-03 DE=-1.78D-03 OVMax= 6.22D-03

 Cycle   6  Pass 1  IDiag  1:
 E= -616.894419507833     Delta-E=       -0.000059004395 Rises=F Damp=F
 DIIS: error= 2.93D-04 at cycle   6 NSaved=   6.
 NSaved= 6 IEnMin= 6 EnMin= -616.894419507833     IErMin= 6 ErrMin= 2.93D-04
 ErrMax= 2.93D-04 EMaxC= 1.00D-01 BMatC= 1.56D-05 BMatP= 7.05D-05
 IDIUse=3 WtCom= 9.97D-01 WtEn= 2.93D-03
 Coeff-Com: -0.348D-02 0.671D-02 0.526D-01 0.778D-01 0.343D+00 0.523D+00
 Coeff-En:   0.000D+00 0.000D+00 0.000D+00 0.000D+00 0.185D+00 0.815D+00
 Coeff:     -0.347D-02 0.669D-02 0.525D-01 0.776D-01 0.342D+00 0.524D+00
 Gap=     0.248 Goal=   None    Shift=    0.000
 RMSDP=4.11D-05 MaxDP=1.24D-03 DE=-5.90D-05 OVMax= 2.21D-03

 Cycle   7  Pass 1  IDiag  1:
 E= -616.894434910065     Delta-E=       -0.000015402233 Rises=F Damp=F
 DIIS: error= 3.33D-05 at cycle   7 NSaved=   7.
 NSaved= 7 IEnMin= 7 EnMin= -616.894434910065     IErMin= 7 ErrMin= 3.33D-05
 ErrMax= 3.33D-05 EMaxC= 1.00D-01 BMatC= 4.31D-07 BMatP= 1.56D-05
 IDIUse=1 WtCom= 1.00D+00 WtEn= 0.00D+00
 Coeff-Com: -0.653D-03 0.330D-03 0.121D-01 0.186D-01 0.111D+00 0.231D+00
 Coeff-Com:  0.628D+00
 Coeff:     -0.653D-03 0.330D-03 0.121D-01 0.186D-01 0.111D+00 0.231D+00
 Coeff:      0.628D+00
 Gap=     0.248 Goal=   None    Shift=    0.000
 RMSDP=9.30D-06 MaxDP=3.55D-04 DE=-1.54D-05 OVMax= 1.80D-04

 Cycle   8  Pass 1  IDiag  1:
 E= -616.894435300798     Delta-E=       -0.000000390732 Rises=F Damp=F
 DIIS: error= 7.43D-06 at cycle   8 NSaved=   8.
 NSaved= 8 IEnMin= 8 EnMin= -616.894435300798     IErMin= 8 ErrMin= 7.43D-06
 ErrMax= 7.43D-06 EMaxC= 1.00D-01 BMatC= 1.76D-08 BMatP= 4.31D-07
 IDIUse=1 WtCom= 1.00D+00 WtEn= 0.00D+00
 Coeff-Com:  0.479D-04-0.346D-03 0.753D-03 0.140D-02 0.187D-01 0.554D-01
 Coeff-Com:  0.231D+00 0.693D+00
 Coeff:      0.479D-04-0.346D-03 0.753D-03 0.140D-02 0.187D-01 0.554D-01
 Coeff:      0.231D+00 0.693D+00
 Gap=     0.248 Goal=   None    Shift=    0.000
 RMSDP=1.81D-06 MaxDP=4.62D-05 DE=-3.91D-07 OVMax= 4.59D-05

 Cycle   9  Pass 1  IDiag  1:
 E= -616.894435317291     Delta-E=       -0.000000016494 Rises=F Damp=F
 DIIS: error= 2.04D-06 at cycle   9 NSaved=   9.
 NSaved= 9 IEnMin= 9 EnMin= -616.894435317291     IErMin= 9 ErrMin= 2.04D-06
 ErrMax= 2.04D-06 EMaxC= 1.00D-01 BMatC= 1.18D-09 BMatP= 1.76D-08
 IDIUse=1 WtCom= 1.00D+00 WtEn= 0.00D+00
 Coeff-Com:  0.419D-04-0.996D-04-0.476D-03-0.663D-03-0.225D-02-0.475D-03
 Coeff-Com:  0.197D-01 0.243D+00 0.741D+00
 Coeff:      0.419D-04-0.996D-04-0.476D-03-0.663D-03-0.225D-02-0.475D-03
 Coeff:      0.197D-01 0.243D+00 0.741D+00
 Gap=     0.248 Goal=   None    Shift=    0.000
 RMSDP=7.68D-07 MaxDP=2.77D-05 DE=-1.65D-08 OVMax= 8.55D-06

 Cycle  10  Pass 1  IDiag  1:
 E= -616.894435318456     Delta-E=       -0.000000001165 Rises=F Damp=F
 DIIS: error= 4.10D-07 at cycle  10 NSaved=  10.
 NSaved=10 IEnMin=10 EnMin= -616.894435318456     IErMin=10 ErrMin= 4.10D-07
 ErrMax= 4.10D-07 EMaxC= 1.00D-01 BMatC= 4.04D-11 BMatP= 1.18D-09
 IDIUse=1 WtCom= 1.00D+00 WtEn= 0.00D+00
 Coeff-Com:  0.112D-04-0.200D-04-0.181D-03-0.257D-03-0.127D-02-0.150D-02
 Coeff-Com:  0.847D-03 0.730D-01 0.271D+00 0.658D+00
 Coeff:      0.112D-04-0.200D-04-0.181D-03-0.257D-03-0.127D-02-0.150D-02
 Coeff:      0.847D-03 0.730D-01 0.271D+00 0.658D+00
 Gap=     0.248 Goal=   None    Shift=    0.000
 RMSDP=1.21D-07 MaxDP=4.64D-06 DE=-1.16D-09 OVMax= 1.87D-06

 Cycle  11  Pass 1  IDiag  1:
 E= -616.894435318493     Delta-E=       -0.000000000037 Rises=F Damp=F
 DIIS: error= 1.45D-07 at cycle  11 NSaved=  11.
 NSaved=11 IEnMin=11 EnMin= -616.894435318493     IErMin=11 ErrMin= 1.45D-07
 ErrMax= 1.45D-07 EMaxC= 1.00D-01 BMatC= 6.28D-12 BMatP= 4.04D-11
 IDIUse=1 WtCom= 1.00D+00 WtEn= 0.00D+00
 Coeff-Com:  0.187D-05-0.187D-05-0.502D-04-0.716D-04-0.408D-03-0.584D-03
 Coeff-Com: -0.112D-02 0.138D-01 0.635D-01 0.319D+00 0.606D+00
 Coeff:      0.187D-05-0.187D-05-0.502D-04-0.716D-04-0.408D-03-0.584D-03
 Coeff:     -0.112D-02 0.138D-01 0.635D-01 0.319D+00 0.606D+00
 Gap=     0.248 Goal=   None    Shift=    0.000
 RMSDP=3.20D-08 MaxDP=1.11D-06 DE=-3.72D-11 OVMax= 5.10D-07

 Cycle  12  Pass 1  IDiag  1:
 E= -616.894435318497     Delta-E=       -0.000000000004 Rises=F Damp=F
 DIIS: error= 1.95D-08 at cycle  12 NSaved=  12.
 NSaved=12 IEnMin=12 EnMin= -616.894435318497     IErMin=12 ErrMin= 1.95D-08
 ErrMax= 1.95D-08 EMaxC= 1.00D-01 BMatC= 1.12D-13 BMatP= 6.28D-12
 IDIUse=1 WtCom= 1.00D+00 WtEn= 0.00D+00
 Coeff-Com: -0.261D-06 0.749D-06-0.141D-05-0.375D-05-0.303D-04-0.250D-04
 Coeff-Com: -0.325D-03-0.133D-02-0.704D-03 0.369D-01 0.134D+00 0.831D+00
 Coeff:     -0.261D-06 0.749D-06-0.141D-05-0.375D-05-0.303D-04-0.250D-04
 Coeff:     -0.325D-03-0.133D-02-0.704D-03 0.369D-01 0.134D+00 0.831D+00
 Gap=     0.248 Goal=   None    Shift=    0.000
 RMSDP=9.87D-09 MaxDP=4.80D-07 DE=-3.98D-12 OVMax= 1.12D-07

 Cycle  13  Pass 1  IDiag  1:
 E= -616.894435318497     Delta-E=        0.000000000000 Rises=F Damp=F
 DIIS: error= 4.21D-09 at cycle  13 NSaved=  13.
 NSaved=13 IEnMin=12 EnMin= -616.894435318497     IErMin=13 ErrMin= 4.21D-09
 ErrMax= 4.21D-09 EMaxC= 1.00D-01 BMatC= 4.45D-15 BMatP= 1.12D-13
 IDIUse=1 WtCom= 1.00D+00 WtEn= 0.00D+00
 Coeff-Com: -0.133D-06 0.291D-06 0.114D-05 0.925D-06 0.297D-06 0.740D-05
 Coeff-Com: -0.842D-04-0.763D-03-0.189D-02 0.180D-02 0.202D-01 0.234D+00
 Coeff-Com:  0.747D+00
 Coeff:     -0.133D-06 0.291D-06 0.114D-05 0.925D-06 0.297D-06 0.740D-05
 Coeff:     -0.842D-04-0.763D-03-0.189D-02 0.180D-02 0.202D-01 0.234D+00
 Coeff:      0.747D+00
 Gap=     0.248 Goal=   None    Shift=    0.000
 RMSDP=2.54D-09 MaxDP=1.04D-07 DE= 1.14D-13 OVMax= 1.86D-08

 Cycle  14  Pass 1  IDiag  1:
 E= -616.894435318497     Delta-E=        0.000000000000 Rises=F Damp=F
 DIIS: error= 8.85D-10 at cycle  14 NSaved=  14.
 NSaved=14 IEnMin=12 EnMin= -616.894435318497     IErMin=14 ErrMin= 8.85D-10
 ErrMax= 8.85D-10 EMaxC= 1.00D-01 BMatC= 2.16D-16 BMatP= 4.45D-15
 IDIUse=1 WtCom= 1.00D+00 WtEn= 0.00D+00
 Coeff-Com: -0.984D-08 0.202D-07 0.327D-06 0.392D-06 0.116D-05 0.291D-05
 Coeff-Com: -0.484D-05-0.103D-03-0.439D-03-0.176D-02-0.293D-02 0.120D-01
 Coeff-Com:  0.198D+00 0.795D+00
 Coeff:     -0.984D-08 0.202D-07 0.327D-06 0.392D-06 0.116D-05 0.291D-05
 Coeff:     -0.484D-05-0.103D-03-0.439D-03-0.176D-02-0.293D-02 0.120D-01
 Coeff:      0.198D+00 0.795D+00
 Gap=     0.248 Goal=   None    Shift=    0.000
 RMSDP=5.99D-10 MaxDP=2.44D-08 DE= 1.14D-13 OVMax= 3.92D-09

 Cycle  15  Pass 1  IDiag  1:
 E= -616.894435318500     Delta-E=       -0.000000000003 Rises=F Damp=F
 DIIS: error= 1.68D-10 at cycle  15 NSaved=  15.
 NSaved=15 IEnMin=15 EnMin= -616.894435318500     IErMin=15 ErrMin= 1.68D-10
 ErrMax= 1.68D-10 EMaxC= 1.00D-01 BMatC= 3.80D-18 BMatP= 2.16D-16
 IDIUse=1 WtCom= 1.00D+00 WtEn= 0.00D+00
 Coeff-Com:  0.779D-09-0.163D-08 0.403D-07 0.724D-07 0.204D-06 0.415D-06
 Coeff-Com:  0.893D-06-0.492D-06-0.374D-04-0.342D-03-0.108D-02-0.338D-02
 Coeff-Com:  0.167D-01 0.139D+00 0.849D+00
 Coeff:      0.779D-09-0.163D-08 0.403D-07 0.724D-07 0.204D-06 0.415D-06
 Coeff:      0.893D-06-0.492D-06-0.374D-04-0.342D-03-0.108D-02-0.338D-02
 Coeff:      0.167D-01 0.139D+00 0.849D+00
 Gap=     0.248 Goal=   None    Shift=    0.000
 RMSDP=8.89D-11 MaxDP=3.30D-09 DE=-2.96D-12 OVMax= 7.74D-10

 Cycle  16  Pass 1  IDiag  1:
 E= -616.894435318500     Delta-E=        0.000000000000 Rises=F Damp=F
 DIIS: error= 4.36D-11 at cycle  16 NSaved=  16.
 NSaved=16 IEnMin=15 EnMin= -616.894435318500     IErMin=16 ErrMin= 4.36D-11
 ErrMax= 4.36D-11 EMaxC= 1.00D-01 BMatC= 2.01D-19 BMatP= 3.80D-18
 IDIUse=1 WtCom= 1.00D+00 WtEn= 0.00D+00
 Large coefficients: NSaved= 16 BigCof=    0.00 CofMax=   10.00 Det=-2.10D-18
 Inversion failed.  Reducing to 15 matrices.
 Coeff-Com: -0.172D-09 0.484D-08 0.135D-07 0.408D-07 0.846D-07 0.374D-06
 Coeff-Com:  0.170D-05 0.127D-05-0.268D-04-0.165D-03-0.986D-03-0.214D-02
 Coeff-Com:  0.488D-02 0.199D+00 0.799D+00
 Coeff:     -0.172D-09 0.484D-08 0.135D-07 0.408D-07 0.846D-07 0.374D-06
 Coeff:      0.170D-05 0.127D-05-0.268D-04-0.165D-03-0.986D-03-0.214D-02
 Coeff:      0.488D-02 0.199D+00 0.799D+00
 Gap=     0.248 Goal=   None    Shift=    0.000
 RMSDP=2.63D-11 MaxDP=1.46D-09 DE= 2.27D-13 OVMax= 1.66D-10

 Cycle  17  Pass 1  IDiag  1:
 E= -616.894435318499     Delta-E=        0.000000000001 Rises=F Damp=F
 DIIS: error= 8.46D-12 at cycle  17 NSaved=  16.
 NSaved=16 IEnMin=14 EnMin= -616.894435318500     IErMin=16 ErrMin= 8.46D-12
 ErrMax= 8.46D-12 EMaxC= 1.00D-01 BMatC= 9.64D-21 BMatP= 2.01D-19
 IDIUse=1 WtCom= 1.00D+00 WtEn= 0.00D+00
 Large coefficients: NSaved= 16 BigCof=    0.00 CofMax=   10.00 Det=-1.15D-19
 Inversion failed.  Reducing to 15 matrices.
 Coeff-Com: -0.114D-08-0.662D-09-0.205D-08 0.172D-08 0.532D-07 0.476D-06
 Coeff-Com:  0.240D-05 0.101D-04 0.655D-05-0.108D-03-0.139D-02-0.583D-02
 Coeff-Com:  0.153D-01 0.220D+00 0.773D+00
 Coeff:     -0.114D-08-0.662D-09-0.205D-08 0.172D-08 0.532D-07 0.476D-06
 Coeff:      0.240D-05 0.101D-04 0.655D-05-0.108D-03-0.139D-02-0.583D-02
 Coeff:      0.153D-01 0.220D+00 0.773D+00
 Gap=     0.248 Goal=   None    Shift=    0.000
 RMSDP=1.39D-11 MaxDP=1.16D-09 DE= 1.25D-12 OVMax= 3.10D-11

 Cycle  18  Pass 1  IDiag  1:
 E= -616.894435318498     Delta-E=        0.000000000000 Rises=F Damp=F
 DIIS: error= 1.20D-12 at cycle  18 NSaved=  16.
 NSaved=16 IEnMin=13 EnMin= -616.894435318500     IErMin=16 ErrMin= 1.20D-12
 ErrMax= 1.20D-12 EMaxC= 1.00D-01 BMatC= 2.86D-22 BMatP= 9.64D-21
 IDIUse=1 WtCom= 1.00D+00 WtEn= 0.00D+00
 Large coefficients: NSaved= 16 BigCof=    0.00 CofMax=   10.00 Det=-3.63D-21
 Inversion failed.  Reducing to 15 matrices.
 Coeff-Com:  0.915D-11 0.783D-09 0.102D-08 0.850D-08 0.225D-07 0.155D-06
 Coeff-Com:  0.594D-06 0.504D-06-0.958D-05-0.804D-04-0.636D-03-0.101D-02
 Coeff-Com:  0.152D-01 0.126D+00 0.860D+00
 Coeff:      0.915D-11 0.783D-09 0.102D-08 0.850D-08 0.225D-07 0.155D-06
 Coeff:      0.594D-06 0.504D-06-0.958D-05-0.804D-04-0.636D-03-0.101D-02
 Coeff:      0.152D-01 0.126D+00 0.860D+00
 Gap=     0.248 Goal=   None    Shift=    0.000
 RMSDP=7.70D-12 MaxDP=2.86D-10 DE= 3.41D-13 OVMax= 7.00D-12

 SCF Done:  E(RB3LYP) =  -616.894435318     A.U. after   18 cycles
             Convg  =    0.7704D-11             -V/T =  2.0031
 KE= 6.149873684556D+02 PE=-1.880181043170D+03 EE= 4.365710519558D+02
 Leave Link  502 at Wed Jul 10 17:23:16 2013, MaxMem=  131072000 cpu:     239.1
 (Enter /cerebro/home/software/apps/g09/l801.exe)
 Range of M.O.s used for correlation:     1   167
 NBasis=   167 NAE=    24 NBE=    24 NFC=     0 NFV=     0
 NROrb=    167 NOA=    24 NOB=    24 NVA=   143 NVB=   143

 **** Warning!!: The largest alpha MO coefficient is  0.69454164D+02

 Leave Link  801 at Wed Jul 10 17:23:16 2013, MaxMem=  131072000 cpu:       0.0
 (Enter /cerebro/home/software/apps/g09/l1002.exe)
 Minotr:  Closed shell wavefunction.
          Direct CPHF calculation.
          Differentiating once with respect to magnetic field using GIAOs.
          Electric field/nuclear overlap derivatives assumed to be zero.
          Requested convergence is 1.0D-11 RMS, and 1.0D-10 maximum.
          NewPWx=F KeepS1=T KeepF1=T KeepIn=T MapXYZ=F SortEE=F KeepMc=T.
          MDV=     131071900 using IRadAn=       4.
 Generate precomputed XC quadrature information.
          Solving linear equations separately, MaxMat=       0.
          Doing perturbations at frequencies    0.071980    0.077357    0.104503    0.128347
 FoFCou: FMM=F IPFlag=           0 FMFlag=           0 FMFlg1=           0
         NFxFlg=           0 DoJE=F BraDBF=F KetDBF=T FulRan=T
         Omega=  0.000000  0.000000  1.000000  0.000000  0.000000 ICntrl=    6100 IOpCl=  0
         NMat0=    1 NMatS0=    1 NMatT0=    0 NMatD0=    1 NMtDS0=    0 NMtDT0=    0
         I1Cent=           7 NGrid=          12.
 Symmetry not used in FoFCou.
 Integrals replicated using symmetry in FoFDir.
 MinBra= 0 MaxBra= 2 Meth= 1.
 IRaf=       0 NMat=  24 IRICut=      30 DoRegI=T DoRafI=T ISym2E= 2 JSym2E=2.
 CalDSu exits because no D1Ps are significant.
          There are    12 degrees of freedom in the 1st order CPHF.  IDoFFX=0.
 LinEq1:  Iter=  0 NonCon=    12 RMS=5.67D-02 Max=1.43D+00
 AX will form    12 AO Fock derivatives at one time.
 LinEq1:  Iter=  1 NonCon=    12 RMS=1.80D-02 Max=8.60D-01
 LinEq1:  Iter=  2 NonCon=    12 RMS=1.31D-02 Max=6.77D-01
 LinEq1:  Iter=  3 NonCon=    12 RMS=6.46D-03 Max=1.80D-01
 LinEq1:  Iter=  4 NonCon=    12 RMS=4.07D-03 Max=6.98D-02
 LinEq1:  Iter=  5 NonCon=    12 RMS=1.69D-03 Max=5.03D-02
 LinEq1:  Iter=  6 NonCon=    12 RMS=8.89D-04 Max=1.65D-02
 LinEq1:  Iter=  7 NonCon=    12 RMS=3.36D-04 Max=6.20D-03
 LinEq1:  Iter=  8 NonCon=    12 RMS=1.42D-04 Max=2.89D-03
 LinEq1:  Iter=  9 NonCon=    12 RMS=5.20D-05 Max=8.81D-04
 LinEq1:  Iter= 10 NonCon=    12 RMS=2.12D-05 Max=3.05D-04
 LinEq1:  Iter= 11 NonCon=    12 RMS=8.25D-06 Max=1.64D-04
 LinEq1:  Iter= 12 NonCon=    12 RMS=3.81D-06 Max=6.21D-05
 LinEq1:  Iter= 13 NonCon=    12 RMS=1.41D-06 Max=2.30D-05
 LinEq1:  Iter= 14 NonCon=    12 RMS=4.42D-07 Max=7.07D-06
 LinEq1:  Iter= 15 NonCon=    12 RMS=1.26D-07 Max=2.41D-06
 LinEq1:  Iter= 16 NonCon=    12 RMS=3.68D-08 Max=5.81D-07
 LinEq1:  Iter= 17 NonCon=    12 RMS=9.19D-09 Max=3.03D-07
 LinEq1:  Iter= 18 NonCon=    12 RMS=2.16D-09 Max=5.61D-08
 LinEq1:  Iter= 19 NonCon=    12 RMS=5.87D-10 Max=1.21D-08
 LinEq1:  Iter= 20 NonCon=    12 RMS=1.71D-10 Max=3.59D-09
 LinEq1:  Iter= 21 NonCon=     8 RMS=4.78D-11 Max=9.98D-10
 LinEq1:  Iter= 22 NonCon=     3 RMS=1.26D-11 Max=2.86D-10
 LinEq1:  Iter= 23 NonCon=     0 RMS=4.89D-12 Max=6.76D-11
 Linear equations converged to 1.000D-11 1.000D-10 after    23 iterations.
 FullF1:  Do perturbations    1 to    12.
 Dipole-magnetic dipole polarizability for W=    0.071980:
                 1             2             3 
      1   0.408131D+01 -0.646239D+00 -0.766423D+01
      2  -0.100527D+02 -0.380520D+01 -0.202771D+02
      3   0.240769D+02  0.828710D+01  0.113765D+01
 w=    0.071980 a.u., Optical Rotation Beta=     -0.4713 au.
 Molar Mass =     90.5523 grams/mole, [Alpha] ( 6330.0 A) =     -174.34 deg.
 Dipole-magnetic dipole polarizability for W=    0.077357:
                 1             2             3 
      1   0.414626D+01 -0.630701D+00 -0.765165D+01
      2  -0.102203D+02 -0.384990D+01 -0.203626D+02
      3   0.242785D+02  0.836198D+01  0.116577D+01
 w=    0.077357 a.u., Optical Rotation Beta=     -0.4874 au.
 Molar Mass =     90.5523 grams/mole, [Alpha] ( 5890.0 A) =     -208.25 deg.
 Dipole-magnetic dipole polarizability for W=    0.104503:
                 1             2             3 
      1   0.459967D+01 -0.516280D+00 -0.755554D+01
      2  -0.113654D+02 -0.414698D+01 -0.209177D+02
      3   0.256765D+02  0.888116D+01  0.136469D+01
 w=    0.104503 a.u., Optical Rotation Beta=     -0.6058 au.
 Molar Mass =     90.5523 grams/mole, [Alpha] ( 4360.0 A) =     -472.39 deg.
 Dipole-magnetic dipole polarizability for W=    0.128347:
                 1             2             3 
      1   0.525634D+01 -0.336109D+00 -0.739904D+01
      2  -0.129436D+02 -0.453453D+01 -0.216144D+02
      3   0.276808D+02  0.962379D+01  0.165890D+01
 w=    0.128347 a.u., Optical Rotation Beta=     -0.7936 au.
 Molar Mass =     90.5523 grams/mole, [Alpha] ( 3550.0 A) =     -933.42 deg.
 End of Minotr Frequency-dependent properties on file   721 Mask=       2 NFrqRd=     4 NDeriv=     1 LenFil=      42:
 Frequencies=    0.071980    0.077357    0.104503    0.128347
 Property number 2 -- FD Optical Rotation Tensor frequency  1    0.071980:
                 1             2             3 
      1   0.408131D+01 -0.646239D+00 -0.766423D+01
      2  -0.100527D+02 -0.380520D+01 -0.202771D+02
      3   0.240769D+02  0.828710D+01  0.113765D+01
 Property number 2 -- FD Optical Rotation Tensor frequency  2    0.077357:
                 1             2             3 
      1   0.414626D+01 -0.630701D+00 -0.765165D+01
      2  -0.102203D+02 -0.384990D+01 -0.203626D+02
      3   0.242785D+02  0.836198D+01  0.116577D+01
 Property number 2 -- FD Optical Rotation Tensor frequency  3    0.104503:
                 1             2             3 
      1   0.459967D+01 -0.516280D+00 -0.755554D+01
      2  -0.113654D+02 -0.414698D+01 -0.209177D+02
      3   0.256765D+02  0.888116D+01  0.136469D+01
 Property number 2 -- FD Optical Rotation Tensor frequency  4    0.128347:
                 1             2             3 
      1   0.525634D+01 -0.336109D+00 -0.739904D+01
      2  -0.129436D+02 -0.453453D+01 -0.216144D+02
      3   0.276808D+02  0.962379D+01  0.165890D+01
 End of Minotr Frequency-dependent properties file   722 does not exist.
 Leave Link 1002 at Wed Jul 10 17:47:59 2013, MaxMem=  131072000 cpu:    1481.7
 (Enter /cerebro/home/software/apps/g09/l601.exe)
 Copying SCF densities to generalized density rwf, IOpCl= 0 IROHF=0.

 **********************************************************************

            Population analysis using the SCF density.

 **********************************************************************

 Orbital symmetries:
       Occupied  (A) (A) (A) (A) (A) (A) (A) (A) (A) (A) (A) (A)
                 (A) (A) (A) (A) (A) (A) (A) (A) (A) (A) (A) (A)
       Virtual   (A) (A) (A) (A) (A) (A) (A) (A) (A) (A) (A) (A)
                 (A) (A) (A) (A) (A) (A) (A) (A) (A) (A) (A) (A)
                 (A) (A) (A) (A) (A) (A) (A) (A) (A) (A) (A) (A)
                 (A) (A) (A) (A) (A) (A) (A) (A) (A) (A) (A) (A)
                 (A) (A) (A) (A) (A) (A) (A) (A) (A) (A) (A) (A)
                 (A) (A) (A) (A) (A) (A) (A) (A) (A) (A) (A) (A)
                 (A) (A) (A) (A) (A) (A) (A) (A) (A) (A) (A) (A)
                 (A) (A) (A) (A) (A) (A) (A) (A) (A) (A) (A) (A)
                 (A) (A) (A) (A) (A) (A) (A) (A) (A) (A) (A) (A)
                 (A) (A) (A) (A) (A) (A) (A) (A) (A) (A) (A) (A)
                 (A) (A) (A) (A) (A) (A) (A) (A) (A) (A) (A) (A)
                 (A) (A) (A) (A) (A) (A) (A) (A) (A) (A) (A)
 The electronic state is 1-A.
 Alpha  occ. eigenvalues -- -101.53312 -10.24697 -10.19619 -10.18631 -10.18151
 Alpha  occ. eigenvalues --   -9.44776  -7.21207  -7.20268  -7.20250  -0.86802
 Alpha  occ. eigenvalues --   -0.78750  -0.73981  -0.63916  -0.57784  -0.48639
 Alpha  occ. eigenvalues --   -0.47438  -0.44289  -0.41698  -0.40405  -0.37465
 Alpha  occ. eigenvalues --   -0.36649  -0.30552  -0.29709  -0.28139
 Alpha virt. eigenvalues --   -0.03383  -0.00755   0.00618   0.00733   0.02331
 Alpha virt. eigenvalues --    0.02823   0.03829   0.04162   0.06296   0.06508
 Alpha virt. eigenvalues --    0.07064   0.08363   0.08704   0.10004   0.11056
 Alpha virt. eigenvalues --    0.11630   0.11900   0.12187   0.12861   0.13083
 Alpha virt. eigenvalues --    0.13515   0.14090   0.15108   0.15820   0.16064
 Alpha virt. eigenvalues --    0.16375   0.17052   0.18310   0.19322   0.21322
 Alpha virt. eigenvalues --    0.21953   0.22282   0.24767   0.26472   0.27076
 Alpha virt. eigenvalues --    0.29143   0.33536   0.35467   0.38850   0.42451
 Alpha virt. eigenvalues --    0.43433   0.44704   0.45680   0.47951   0.48586
 Alpha virt. eigenvalues --    0.49604   0.52527   0.52814   0.56440   0.58350
 Alpha virt. eigenvalues --    0.59510   0.62187   0.62990   0.64237   0.65703
 Alpha virt. eigenvalues --    0.65916   0.68548   0.70673   0.73526   0.74029
 Alpha virt. eigenvalues --    0.78397   0.81761   0.82955   0.86455   0.89378
 Alpha virt. eigenvalues --    0.90457   0.94260   0.95271   1.00419   1.03455
 Alpha virt. eigenvalues --    1.06937   1.09801   1.11402   1.17461   1.19765
 Alpha virt. eigenvalues --    1.28860   1.38909   1.43075   1.45159   1.46844
 Alpha virt. eigenvalues --    1.49934   1.54408   1.56593   1.58695   1.59853
 Alpha virt. eigenvalues --    1.62711   1.67114   1.68006   1.68985   1.72562
 Alpha virt. eigenvalues --    1.77565   1.78619   1.87249   1.88547   1.94252
 Alpha virt. eigenvalues --    1.97221   2.01481   2.06807   2.11021   2.17638
 Alpha virt. eigenvalues --    2.18490   2.20765   2.25346   2.30096   2.30435
 Alpha virt. eigenvalues --    2.36004   2.36950   2.45215   2.45744   2.49081
 Alpha virt. eigenvalues --    2.53458   2.56610   2.56964   2.58441   2.59802
 Alpha virt. eigenvalues --    2.63093   2.72507   2.73928   2.74473   2.77167
 Alpha virt. eigenvalues --    2.83605   2.86133   2.92358   3.08480   3.08710
 Alpha virt. eigenvalues --    3.18460   3.39769   3.49653   3.71509   3.78544
 Alpha virt. eigenvalues --    3.79210   3.93829   4.10651   4.28444   9.75641
 Alpha virt. eigenvalues --   23.71695  23.78636  23.93553  24.23862  25.93985
 Alpha virt. eigenvalues --   25.98446  26.44811 215.74649
          Condensed to atoms (all electrons):
              1          2          3          4          5          6
     1  C    5.401274   0.144659   0.011229   0.096436  -0.004270   0.382321
     2  C    0.144659   5.379559   0.081089  -0.090417  -0.031545  -0.050040
     3  C    0.011229   0.081089   5.217676   0.449009  -0.046918   0.017858
     4  C    0.096436  -0.090417   0.449009   5.348881   0.394034  -0.011932
     5  H   -0.004270  -0.031545  -0.046918   0.394034   0.569966   0.000532
     6  H    0.382321  -0.050040   0.017858  -0.011932   0.000532   0.553763
     7  H    0.003188   0.024627  -0.018498   0.388635  -0.039470   0.000265
     8  H   -0.015711  -0.025782   0.335872  -0.028261   0.016034  -0.002744
     9  H   -0.044380   0.481498  -0.143488   0.012697   0.012446  -0.005024
    10  H    0.393492  -0.013822  -0.046355  -0.001054   0.002340  -0.020650
    11  H    0.366369  -0.043217   0.012896   0.004854  -0.000520  -0.029405
    12  Cl  -0.063668   0.022918   0.001069   0.059493   0.001722   0.015893
              7          8          9         10         11         12
     1  C    0.003188  -0.015711  -0.044380   0.393492   0.366369  -0.063668
     2  C    0.024627  -0.025782   0.481498  -0.013822  -0.043217   0.022918
     3  C   -0.018498   0.335872  -0.143488  -0.046355   0.012896   0.001069
     4  C    0.388635  -0.028261   0.012697  -0.001054   0.004854   0.059493
     5  H   -0.039470   0.016034   0.012446   0.002340  -0.000520   0.001722
     6  H    0.000265  -0.002744  -0.005024  -0.020650  -0.029405   0.015893
     7  H    0.529947  -0.019327  -0.002455  -0.000949  -0.000065  -0.004103
     8  H   -0.019327   0.542649   0.004574   0.003233  -0.001357   0.022191
     9  H   -0.002455   0.004574   0.526550   0.007837  -0.013402  -0.048447
    10  H   -0.000949   0.003233   0.007837   0.543365  -0.033179   0.009069
    11  H   -0.000065  -0.001357  -0.013402  -0.033179   0.581475   0.020227
    12  Cl  -0.004103   0.022191  -0.048447   0.009069   0.020227  17.004587
 Mulliken atomic charges:
              1
     1  C   -0.670938
     2  C    0.120471
     3  C    0.128561
     4  C   -0.622376
     5  H    0.125648
     6  H    0.149162
     7  H    0.138205
     8  H    0.168629
     9  H    0.211594
    10  H    0.156672
    11  H    0.135323
    12  Cl  -0.040953
 Sum of Mulliken atomic charges =   0.00000
 Mulliken charges with hydrogens summed into heavy atoms:
              1
     1  C   -0.229780
     2  C    0.332065
     3  C    0.297191
     4  C   -0.358523
    12  Cl  -0.040953
 Sum of Mulliken charges with hydrogens summed into heavy atoms =   0.00000
 Electronic spatial extent (au):  <R**2>=            628.8243
 Charge=              0.0000 electrons
 Dipole moment (field-independent basis, Debye):
    X=             -1.6835    Y=              1.5554    Z=             -0.2897  Tot=              2.3103
 Quadrupole moment (field-independent basis, Debye-Ang):
   XX=            -39.1074   YY=            -40.3147   ZZ=            -37.1664
   XY=              2.4419   XZ=              0.0882   YZ=             -0.3390
 Traceless Quadrupole moment (field-independent basis, Debye-Ang):
   XX=             -0.2445   YY=             -1.4518   ZZ=              1.6964
   XY=              2.4419   XZ=              0.0882   YZ=             -0.3390
 Octapole moment (field-independent basis, Debye-Ang**2):
  XXX=             -2.1557  YYY=              1.0588  ZZZ=             -0.1788  XYY=              4.5918
  XXY=             -4.7471  XXZ=             -0.1000  XZZ=             -1.0278  YZZ=             -0.3257
  YYZ=             -0.1506  XYZ=              0.0772
 Hexadecapole moment (field-independent basis, Debye-Ang**3):
 XXXX=           -489.5369 YYYY=           -273.4326 ZZZZ=            -81.5592 XXXY=             10.0238
 XXXZ=             -2.5910 YYYX=             -8.3590 YYYZ=             -1.9841 ZZZX=              0.9851
 ZZZY=              0.8265 XXYY=           -130.8922 XXZZ=            -97.1999 YYZZ=            -61.0505
 XXYZ=             -3.4024 YYXZ=              0.7537 ZZXY=              1.3930
 N-N= 2.117281874398D+02 E-N=-1.880181043170D+03  KE= 6.149873684556D+02
 No NMR shielding tensors so no spin-rotation constants.
 Leave Link  601 at Wed Jul 10 17:47:59 2013, MaxMem=  131072000 cpu:       0.2
 (Enter /cerebro/home/software/apps/g09/l9999.exe)
 AllDun Frequency-dependent properties on file 20721 Mask=       2 NFrqRd=     4 NDeriv=     1 LenFil=      42:
 Frequencies=    0.071980    0.077357    0.104503    0.128347
 Property number 2 -- FD Optical Rotation Tensor frequency  1    0.071980:
                 1             2             3 
      1   0.440302D+01 -0.464213D+00 -0.703604D+01
      2  -0.956545D+01 -0.423917D+01 -0.204476D+02
      3   0.239082D+02  0.907386D+01  0.124992D+01
 Property number 2 -- FD Optical Rotation Tensor frequency  2    0.077357:
                 1             2             3 
      1   0.447254D+01 -0.445019D+00 -0.702105D+01
      2  -0.972760D+01 -0.428846D+01 -0.205318D+02
      3   0.241091D+02  0.915565D+01  0.127805D+01
 Property number 2 -- FD Optical Rotation Tensor frequency  3    0.104503:
                 1             2             3 
      1   0.495693D+01 -0.305491D+00 -0.690940D+01
      2  -0.108349D+02 -0.461622D+01 -0.210784D+02
      3   0.255016D+02  0.972262D+01  0.147666D+01
 Property number 2 -- FD Optical Rotation Tensor frequency  4    0.128347:
                 1             2             3 
      1   0.565563D+01 -0.902157D-01 -0.673384D+01
      2  -0.123601D+02 -0.504437D+01 -0.217626D+02
      3   0.274975D+02  0.105334D+02  0.176944D+01
 1\1\GINC-COMPUTE-0-101\SP\RB3LYP\6-311++G(d,p)\C4H7Cl1\CRAWDAD\10-Jul-
 2013\0\\#P B3LYP/6-311++G** scf(conver=11) int=ultrafine polar=optrot 
 cphf(rdfreq,conver=11)\\(R)-3-chloro-1-butene tau=120\\0,1\C,0,0.51118
 673,1.74297893,0.01836117\C,0,-0.0179,0.3454878,-0.28424309\C,0,-1.228
 86828,-0.12138971,0.46480258\C,0,-2.33318199,-0.50275588,-0.17907108\H
 ,0,-2.38050845,-0.49004347,-1.26699031\H,0,1.44640457,1.90750792,-0.52
 998164\H,0,-3.22228912,-0.84019201,0.3462438\H,0,-1.17024388,-0.144614
 24,1.55165241\H,0,-0.20920033,0.24592267,-1.35288649\H,0,0.706237,1.87
 456148,1.08639676\H,0,-0.21770499,2.50087685,-0.29944972\Cl,0,1.383962
 02,-0.81830345,0.0159623\\Version=EM64L-G09RevA.02\State=1-A\HF=-616.8
 944353\RMSD=7.704e-12\Dipole=-0.6807703,0.5902092,-0.119801\Quadrupole
 =-0.2937287,-0.9722523,1.265981,1.84019,0.0550816,-0.2278187\PG=C01 [X
 (C4H7Cl1)]\\@


 K N O W I N G  IS A BARRIER WHICH PREVENTS LEARNING

                     -- TEACHING OF THE BENE GESSERIT
 Job cpu time:  0 days  0 hours 28 minutes 50.0 seconds.
 File lengths (MBytes):  RWF=    119 Int=      0 D2E=      0 Chk=      2 Scr=      1
 Normal termination of Gaussian 09 at Wed Jul 10 17:47:59 2013.
