(R)-3-chloro-1-butene tau=120                                           
SP        RB3LYP                                                      6-311++G(d,p)       
Number of atoms                            I               12
Info1-9                                    I   N=           9
          26          26           0           0           0         110
           1          18        -502
Full Title                                 C   N=           3
(R)-3-chloro-1-butene tau=120       
Route                                      C   N=           7
#P B3LYP/6-311++G** scf(conver=11) int=ultrafine polar=optro
t cphf(rdfreq,conver=11)
Charge                                     I                0
Multiplicity                               I                1
Number of electrons                        I               48
Number of alpha electrons                  I               24
Number of beta electrons                   I               24
Number of basis functions                  I              167
Number of independent functions            I              167
Number of point charges in /Mol/           I                0
Number of translation vectors              I                0
Atomic numbers                             I   N=          12
           6           6           6           6           1           1
           1           1           1           1           1          17
Nuclear charges                            R   N=          12
  6.00000000E+00  6.00000000E+00  6.00000000E+00  6.00000000E+00  1.00000000E+00
  1.00000000E+00  1.00000000E+00  1.00000000E+00  1.00000000E+00  1.00000000E+00
  1.00000000E+00  1.70000000E+01
Current cartesian coordinates              R   N=          36
  1.06377540E+00  3.26498562E+00  7.06277699E-02 -1.61777236E-02  6.61784195E-01
 -5.27640713E-01 -2.33108842E+00 -1.64097293E-01  8.78734851E-01 -4.43851851E+00
 -8.08393326E-01 -3.45360848E-01 -4.52633083E+00 -7.61146775E-01 -2.40089759E+00
  2.84019453E+00  3.53197578E+00 -9.62249537E-01 -6.13782452E+00 -1.40419454E+00
  6.40750837E-01 -2.22254326E+00 -2.31831927E-01  2.93205485E+00 -3.82442566E-01
  5.04931520E-01 -2.54889912E+00  1.43897556E+00  3.48210564E+00  2.09134214E+00
 -2.68903221E-01  4.74461188E+00 -5.15771474E-01  2.56417235E+00 -1.62306628E+00
  1.79707966E-02
Number of symbols in /Mol/                 I                0
Force Field                                I                0
Atom Types                                 C   N=          12
                                                            
                                                            
                        
Int Atom Types                             I   N=          12
           0           0           0           0           0           0
           0           0           0           0           0           0
MM charges                                 R   N=          12
  0.00000000E+00  0.00000000E+00  0.00000000E+00  0.00000000E+00  0.00000000E+00
  0.00000000E+00  0.00000000E+00  0.00000000E+00  0.00000000E+00  0.00000000E+00
  0.00000000E+00  0.00000000E+00
Integer atomic weights                     I   N=          12
          12          12          12          12           1           1
           1           1           1           1           1          35
Real atomic weights                        R   N=          12
  1.20000000E+01  1.20000000E+01  1.20000000E+01  1.20000000E+01  1.00782504E+00
  1.00782504E+00  1.00782504E+00  1.00782504E+00  1.00782504E+00  1.00782504E+00
  1.00782504E+00  3.49688527E+01
Atom fragment info                         I   N=          12
           0           0           0           0           0           0
           0           0           0           0           0           0
Atom residue num                           I   N=          12
           0           0           0           0           0           0
           0           0           0           0           0           0
Nuclear spins                              I   N=          12
           0           0           0           0           1           1
           1           1           1           1           1           3
Nuclear ZEff                               R   N=          12
 -3.60000000E+00 -3.60000000E+00 -3.60000000E+00 -3.60000000E+00 -1.00000000E+00
 -1.00000000E+00 -1.00000000E+00 -1.00000000E+00 -1.00000000E+00 -1.00000000E+00
 -1.00000000E+00 -1.42400000E+01
Nuclear ZNuc                               R   N=          12
  6.00000000E+00  6.00000000E+00  6.00000000E+00  6.00000000E+00  1.00000000E+00
  1.00000000E+00  1.00000000E+00  1.00000000E+00  1.00000000E+00  1.00000000E+00
  1.00000000E+00  1.70000000E+01
Nuclear QMom                               R   N=          12
  0.00000000E+00  0.00000000E+00  0.00000000E+00  0.00000000E+00  0.00000000E+00
  0.00000000E+00  0.00000000E+00  0.00000000E+00  0.00000000E+00  0.00000000E+00
  0.00000000E+00 -8.16500000E+00
Nuclear GFac                               R   N=          12
  0.00000000E+00  0.00000000E+00  0.00000000E+00  0.00000000E+00  2.79284600E+00
  2.79284600E+00  2.79284600E+00  2.79284600E+00  2.79284600E+00  2.79284600E+00
  2.79284600E+00  8.21874000E-01
MicOpt                                     I   N=          12
          -1          -1          -1          -1          -1          -1
          -1          -1          -1          -1          -1          -1
Number of residues                         I                0
Number of secondary structures             I                0
SymInf integers                            I   N=          26
           1           1           1           1           1           0
           0           0           0           0           0           0
           0           0           0           0           0           0
           0           0           0           0           0           0
           0           0
RotTr to input orientation                 R   N=          12
  9.99531432E-01  3.06063295E-02 -4.10809903E-04 -3.06089048E-02  9.99481705E-01
 -9.97074559E-03  1.05429058E-04  9.97864806E-03  9.99950206E-01  2.65616362E-03
 -2.80359021E-03 -2.93531987E-03
Number of contracted shells                I               72
Number of primitive shells                 I              126
Pure/Cartesian d shells                    I                0
Pure/Cartesian f shells                    I                0
Highest angular momentum                   I                2
Largest degree of contraction              I                6
Shell types                                I   N=          72
           0          -1          -1          -1          -1          -2
           0          -1          -1          -1          -1          -2
           0          -1          -1          -1          -1          -2
           0          -1          -1          -1          -1          -2
           0           0           0           0           1           0
           0           0           0           1           0           0
           0           0           1           0           0           0
           0           1           0           0           0           0
           1           0           0           0           0           1
           0           0           0           0           1           0
           0           0           0           0           0          -1
           1           1           1           1           1          -2
Number of primitives per shell             I   N=          72
           6           3           1           1           1           1
           6           3           1           1           1           1
           6           3           1           1           1           1
           6           3           1           1           1           1
           3           1           1           1           1           3
           1           1           1           1           3           1
           1           1           1           3           1           1
           1           1           3           1           1           1
           1           3           1           1           1           1
           3           1           1           1           1           6
           3           1           1           1           1           1
           5           2           1           1           1           1
Shell to atom map                          I   N=          72
           1           1           1           1           1           1
           2           2           2           2           2           2
           3           3           3           3           3           3
           4           4           4           4           4           4
           5           5           5           5           5           6
           6           6           6           6           7           7
           7           7           7           8           8           8
           8           8           9           9           9           9
           9          10          10          10          10          10
          11          11          11          11          11          12
          12          12          12          12          12          12
          12          12          12          12          12          12
Primitive exponents                        R   N=         126
  4.56324000E+03  6.82024000E+02  1.54973000E+02  4.44553000E+01  1.30290000E+01
  1.82773000E+00  2.09642000E+01  4.80331000E+00  1.45933000E+00  4.83456000E-01
  1.45585000E-01  4.38000000E-02  6.26000000E-01  4.56324000E+03  6.82024000E+02
  1.54973000E+02  4.44553000E+01  1.30290000E+01  1.82773000E+00  2.09642000E+01
  4.80331000E+00  1.45933000E+00  4.83456000E-01  1.45585000E-01  4.38000000E-02
  6.26000000E-01  4.56324000E+03  6.82024000E+02  1.54973000E+02  4.44553000E+01
  1.30290000E+01  1.82773000E+00  2.09642000E+01  4.80331000E+00  1.45933000E+00
  4.83456000E-01  1.45585000E-01  4.38000000E-02  6.26000000E-01  4.56324000E+03
  6.82024000E+02  1.54973000E+02  4.44553000E+01  1.30290000E+01  1.82773000E+00
  2.09642000E+01  4.80331000E+00  1.45933000E+00  4.83456000E-01  1.45585000E-01
  4.38000000E-02  6.26000000E-01  3.38650000E+01  5.09479000E+00  1.15879000E+00
  3.25840000E-01  1.02741000E-01  3.60000000E-02  7.50000000E-01  3.38650000E+01
  5.09479000E+00  1.15879000E+00  3.25840000E-01  1.02741000E-01  3.60000000E-02
  7.50000000E-01  3.38650000E+01  5.09479000E+00  1.15879000E+00  3.25840000E-01
  1.02741000E-01  3.60000000E-02  7.50000000E-01  3.38650000E+01  5.09479000E+00
  1.15879000E+00  3.25840000E-01  1.02741000E-01  3.60000000E-02  7.50000000E-01
  3.38650000E+01  5.09479000E+00  1.15879000E+00  3.25840000E-01  1.02741000E-01
  3.60000000E-02  7.50000000E-01  3.38650000E+01  5.09479000E+00  1.15879000E+00
  3.25840000E-01  1.02741000E-01  3.60000000E-02  7.50000000E-01  3.38650000E+01
  5.09479000E+00  1.15879000E+00  3.25840000E-01  1.02741000E-01  3.60000000E-02
  7.50000000E-01  1.05819000E+05  1.58720000E+04  3.61965000E+03  1.03080000E+03
  3.39908000E+02  1.24538000E+02  1.24538000E+02  4.95135000E+01  2.08056000E+01
  6.58346000E+00  2.56468000E+00  5.59763000E-01  1.83273000E-01  4.83000000E-02
  5.89776000E+02  1.39849000E+02  4.51413000E+01  1.68733000E+01  2.77152000E+00
  6.74110000E+00  2.77152000E+00  1.02387000E+00  3.81368000E-01  1.09437000E-01
  7.50000000E-01
Contraction coefficients                   R   N=         126
  1.96665025E-03  1.52306019E-02  7.61269097E-02  2.60801033E-01  6.16462078E-01
  2.21006028E-01  1.14660081E-01  9.19999648E-01 -3.03068213E-03  1.00000000E+00
  1.00000000E+00  1.00000000E+00  1.00000000E+00  1.96665025E-03  1.52306019E-02
  7.61269097E-02  2.60801033E-01  6.16462078E-01  2.21006028E-01  1.14660081E-01
  9.19999648E-01 -3.03068213E-03  1.00000000E+00  1.00000000E+00  1.00000000E+00
  1.00000000E+00  1.96665025E-03  1.52306019E-02  7.61269097E-02  2.60801033E-01
  6.16462078E-01  2.21006028E-01  1.14660081E-01  9.19999648E-01 -3.03068213E-03
  1.00000000E+00  1.00000000E+00  1.00000000E+00  1.00000000E+00  1.96665025E-03
  1.52306019E-02  7.61269097E-02  2.60801033E-01  6.16462078E-01  2.21006028E-01
  1.14660081E-01  9.19999648E-01 -3.03068213E-03  1.00000000E+00  1.00000000E+00
  1.00000000E+00  1.00000000E+00  2.54938145E-02  1.90373109E-01  8.52161486E-01
  1.00000000E+00  1.00000000E+00  1.00000000E+00  1.00000000E+00  2.54938145E-02
  1.90373109E-01  8.52161486E-01  1.00000000E+00  1.00000000E+00  1.00000000E+00
  1.00000000E+00  2.54938145E-02  1.90373109E-01  8.52161486E-01  1.00000000E+00
  1.00000000E+00  1.00000000E+00  1.00000000E+00  2.54938145E-02  1.90373109E-01
  8.52161486E-01  1.00000000E+00  1.00000000E+00  1.00000000E+00  1.00000000E+00
  2.54938145E-02  1.90373109E-01  8.52161486E-01  1.00000000E+00  1.00000000E+00
  1.00000000E+00  1.00000000E+00  2.54938145E-02  1.90373109E-01  8.52161486E-01
  1.00000000E+00  1.00000000E+00  1.00000000E+00  1.00000000E+00  2.54938145E-02
  1.90373109E-01  8.52161486E-01  1.00000000E+00  1.00000000E+00  1.00000000E+00
  1.00000000E+00  7.38000247E-04  5.71800191E-03  2.94950099E-02  1.17286039E-01
  3.62949121E-01  5.84149195E-01  1.34176973E-01  6.24249876E-01  2.91755942E-01
  1.00000000E+00  1.00000000E+00  1.00000000E+00  1.00000000E+00  1.00000000E+00
  3.66556935E-03  2.83679194E-02  1.24756603E-01  3.39654631E-01  7.47585963E-01
 -1.57224381E+00  9.92388882E-01  1.00000000E+00  1.00000000E+00  1.00000000E+00
  1.00000000E+00
P(S=P) Contraction coefficients            R   N=         126
  0.00000000E+00  0.00000000E+00  0.00000000E+00  0.00000000E+00  0.00000000E+00
  0.00000000E+00  4.02486927E-02  2.37593957E-01  8.15853851E-01  1.00000000E+00
  1.00000000E+00  1.00000000E+00  0.00000000E+00  0.00000000E+00  0.00000000E+00
  0.00000000E+00  0.00000000E+00  0.00000000E+00  0.00000000E+00  4.02486927E-02
  2.37593957E-01  8.15853851E-01  1.00000000E+00  1.00000000E+00  1.00000000E+00
  0.00000000E+00  0.00000000E+00  0.00000000E+00  0.00000000E+00  0.00000000E+00
  0.00000000E+00  0.00000000E+00  4.02486927E-02  2.37593957E-01  8.15853851E-01
  1.00000000E+00  1.00000000E+00  1.00000000E+00  0.00000000E+00  0.00000000E+00
  0.00000000E+00  0.00000000E+00  0.00000000E+00  0.00000000E+00  0.00000000E+00
  4.02486927E-02  2.37593957E-01  8.15853851E-01  1.00000000E+00  1.00000000E+00
  1.00000000E+00  0.00000000E+00  0.00000000E+00  0.00000000E+00  0.00000000E+00
  0.00000000E+00  0.00000000E+00  0.00000000E+00  0.00000000E+00  0.00000000E+00
  0.00000000E+00  0.00000000E+00  0.00000000E+00  0.00000000E+00  0.00000000E+00
  0.00000000E+00  0.00000000E+00  0.00000000E+00  0.00000000E+00  0.00000000E+00
  0.00000000E+00  0.00000000E+00  0.00000000E+00  0.00000000E+00  0.00000000E+00
  0.00000000E+00  0.00000000E+00  0.00000000E+00  0.00000000E+00  0.00000000E+00
  0.00000000E+00  0.00000000E+00  0.00000000E+00  0.00000000E+00  0.00000000E+00
  0.00000000E+00  0.00000000E+00  0.00000000E+00  0.00000000E+00  0.00000000E+00
  0.00000000E+00  0.00000000E+00  0.00000000E+00  0.00000000E+00  0.00000000E+00
  0.00000000E+00  0.00000000E+00  0.00000000E+00  0.00000000E+00  0.00000000E+00
  0.00000000E+00  0.00000000E+00  0.00000000E+00  0.00000000E+00  0.00000000E+00
  0.00000000E+00  0.00000000E+00  0.00000000E+00  0.00000000E+00  0.00000000E+00
  0.00000000E+00  0.00000000E+00  0.00000000E+00  0.00000000E+00  1.00000000E+00
  0.00000000E+00  0.00000000E+00  0.00000000E+00  0.00000000E+00  0.00000000E+00
  0.00000000E+00  0.00000000E+00  0.00000000E+00  0.00000000E+00  0.00000000E+00
  0.00000000E+00
Coordinates of each shell                  R   N=         216
  1.06377540E+00  3.26498562E+00  7.06277699E-02  1.06377540E+00  3.26498562E+00
  7.06277699E-02  1.06377540E+00  3.26498562E+00  7.06277699E-02  1.06377540E+00
  3.26498562E+00  7.06277699E-02  1.06377540E+00  3.26498562E+00  7.06277699E-02
  1.06377540E+00  3.26498562E+00  7.06277699E-02 -1.61777236E-02  6.61784195E-01
 -5.27640713E-01 -1.61777236E-02  6.61784195E-01 -5.27640713E-01 -1.61777236E-02
  6.61784195E-01 -5.27640713E-01 -1.61777236E-02  6.61784195E-01 -5.27640713E-01
 -1.61777236E-02  6.61784195E-01 -5.27640713E-01 -1.61777236E-02  6.61784195E-01
 -5.27640713E-01 -2.33108842E+00 -1.64097293E-01  8.78734851E-01 -2.33108842E+00
 -1.64097293E-01  8.78734851E-01 -2.33108842E+00 -1.64097293E-01  8.78734851E-01
 -2.33108842E+00 -1.64097293E-01  8.78734851E-01 -2.33108842E+00 -1.64097293E-01
  8.78734851E-01 -2.33108842E+00 -1.64097293E-01  8.78734851E-01 -4.43851851E+00
 -8.08393326E-01 -3.45360848E-01 -4.43851851E+00 -8.08393326E-01 -3.45360848E-01
 -4.43851851E+00 -8.08393326E-01 -3.45360848E-01 -4.43851851E+00 -8.08393326E-01
 -3.45360848E-01 -4.43851851E+00 -8.08393326E-01 -3.45360848E-01 -4.43851851E+00
 -8.08393326E-01 -3.45360848E-01 -4.52633083E+00 -7.61146775E-01 -2.40089759E+00
 -4.52633083E+00 -7.61146775E-01 -2.40089759E+00 -4.52633083E+00 -7.61146775E-01
 -2.40089759E+00 -4.52633083E+00 -7.61146775E-01 -2.40089759E+00 -4.52633083E+00
 -7.61146775E-01 -2.40089759E+00  2.84019453E+00  3.53197578E+00 -9.62249537E-01
  2.84019453E+00  3.53197578E+00 -9.62249537E-01  2.84019453E+00  3.53197578E+00
 -9.62249537E-01  2.84019453E+00  3.53197578E+00 -9.62249537E-01  2.84019453E+00
  3.53197578E+00 -9.62249537E-01 -6.13782452E+00 -1.40419454E+00  6.40750837E-01
 -6.13782452E+00 -1.40419454E+00  6.40750837E-01 -6.13782452E+00 -1.40419454E+00
  6.40750837E-01 -6.13782452E+00 -1.40419454E+00  6.40750837E-01 -6.13782452E+00
 -1.40419454E+00  6.40750837E-01 -2.22254326E+00 -2.31831927E-01  2.93205485E+00
 -2.22254326E+00 -2.31831927E-01  2.93205485E+00 -2.22254326E+00 -2.31831927E-01
  2.93205485E+00 -2.22254326E+00 -2.31831927E-01  2.93205485E+00 -2.22254326E+00
 -2.31831927E-01  2.93205485E+00 -3.82442566E-01  5.04931520E-01 -2.54889912E+00
 -3.82442566E-01  5.04931520E-01 -2.54889912E+00 -3.82442566E-01  5.04931520E-01
 -2.54889912E+00 -3.82442566E-01  5.04931520E-01 -2.54889912E+00 -3.82442566E-01
  5.04931520E-01 -2.54889912E+00  1.43897556E+00  3.48210564E+00  2.09134214E+00
  1.43897556E+00  3.48210564E+00  2.09134214E+00  1.43897556E+00  3.48210564E+00
  2.09134214E+00  1.43897556E+00  3.48210564E+00  2.09134214E+00  1.43897556E+00
  3.48210564E+00  2.09134214E+00 -2.68903221E-01  4.74461188E+00 -5.15771474E-01
 -2.68903221E-01  4.74461188E+00 -5.15771474E-01 -2.68903221E-01  4.74461188E+00
 -5.15771474E-01 -2.68903221E-01  4.74461188E+00 -5.15771474E-01 -2.68903221E-01
  4.74461188E+00 -5.15771474E-01  2.56417235E+00 -1.62306628E+00  1.79707966E-02
  2.56417235E+00 -1.62306628E+00  1.79707966E-02  2.56417235E+00 -1.62306628E+00
  1.79707966E-02  2.56417235E+00 -1.62306628E+00  1.79707966E-02  2.56417235E+00
 -1.62306628E+00  1.79707966E-02  2.56417235E+00 -1.62306628E+00  1.79707966E-02
  2.56417235E+00 -1.62306628E+00  1.79707966E-02  2.56417235E+00 -1.62306628E+00
  1.79707966E-02  2.56417235E+00 -1.62306628E+00  1.79707966E-02  2.56417235E+00
 -1.62306628E+00  1.79707966E-02  2.56417235E+00 -1.62306628E+00  1.79707966E-02
  2.56417235E+00 -1.62306628E+00  1.79707966E-02  2.56417235E+00 -1.62306628E+00
  1.79707966E-02
Constraint Structure                       R   N=          36
  1.06377540E+00  3.26498562E+00  7.06277699E-02 -1.61777236E-02  6.61784195E-01
 -5.27640713E-01 -2.33108842E+00 -1.64097293E-01  8.78734851E-01 -4.43851851E+00
 -8.08393326E-01 -3.45360848E-01 -4.52633083E+00 -7.61146775E-01 -2.40089759E+00
  2.84019453E+00  3.53197578E+00 -9.62249537E-01 -6.13782452E+00 -1.40419454E+00
  6.40750837E-01 -2.22254326E+00 -2.31831927E-01  2.93205485E+00 -3.82442566E-01
  5.04931520E-01 -2.54889912E+00  1.43897556E+00  3.48210564E+00  2.09134214E+00
 -2.68903221E-01  4.74461188E+00 -5.15771474E-01  2.56417235E+00 -1.62306628E+00
  1.79707966E-02
Num ILSW                                   I              100
ILSW                                       I   N=         100
           0           0           0           0           2           0
           0           0           0           0         402          -1
           5           0           0           0           0           0
           0           0           0           0           0           0
           1           0           0           0           0           0
           0           0      100000           0          -1           0
           0           0           0           0           0           0
           0           0           0           1           0           0
           0           0           1           0           0           0
           0           0           4          41           0           0
           0           0           5           0           0           0
           0           0           0           0           0           0
           0           0           0           0           0           0
           0           0           0           0           0           0
           0           0           0           0           0           0
           0           0           0           0           0           0
           0           0           0           0
Num RLSW                                   I               41
RLSW                                       R   N=          41
  8.00000000E-01  7.20000000E-01  1.00000000E+00  8.10000000E-01  2.00000000E-01
  0.00000000E+00  0.00000000E+00  1.00000000E+00  0.00000000E+00  0.00000000E+00
  0.00000000E+00  0.00000000E+00  1.00000000E+00  0.00000000E+00  0.00000000E+00
  0.00000000E+00  0.00000000E+00  1.00000000E+00  0.00000000E+00  0.00000000E+00
  0.00000000E+00  0.00000000E+00  1.00000000E+00  0.00000000E+00  0.00000000E+00
  0.00000000E+00  0.00000000E+00  1.00000000E+00  0.00000000E+00  0.00000000E+00
  0.00000000E+00  0.00000000E+00  0.00000000E+00  0.00000000E+00  0.00000000E+00
  0.00000000E+00  0.00000000E+00  0.00000000E+00  1.00000000E+00  1.00000000E+00
  0.00000000E+00
MxBond                                     I                4
NBond                                      I   N=          12
           4           4           3           3           1           1
           1           1           1           1           1           1
IBond                                      I   N=          48
           2           6          10          11           1           3
           9          12           2           4           8           0
           3           5           7           0           4           0
           0           0           1           0           0           0
           4           0           0           0           3           0
           0           0           2           0           0           0
           1           0           0           0           1           0
           0           0           2           0           0           0
RBond                                      R   N=          48
  1.00000000E+00  1.00000000E+00  1.00000000E+00  1.00000000E+00  1.00000000E+00
  1.00000000E+00  1.00000000E+00  1.00000000E+00  1.00000000E+00  2.00000000E+00
  1.00000000E+00  0.00000000E+00  2.00000000E+00  1.00000000E+00  1.00000000E+00
  0.00000000E+00  1.00000000E+00  0.00000000E+00  0.00000000E+00  0.00000000E+00
  1.00000000E+00  0.00000000E+00  0.00000000E+00  0.00000000E+00  1.00000000E+00
  0.00000000E+00  0.00000000E+00  0.00000000E+00  1.00000000E+00  0.00000000E+00
  0.00000000E+00  0.00000000E+00  1.00000000E+00  0.00000000E+00  0.00000000E+00
  0.00000000E+00  1.00000000E+00  0.00000000E+00  0.00000000E+00  0.00000000E+00
  1.00000000E+00  0.00000000E+00  0.00000000E+00  0.00000000E+00  1.00000000E+00
  0.00000000E+00  0.00000000E+00  0.00000000E+00
Virial Ratio                               R      2.003100985419662E+00
SCF Energy                                 R     -6.168944353184983E+02
Total Energy                               R     -6.168944353184983E+02
RMS Density                                R      7.704236669913665E-12
Nuclear derivative order                   I                0
External E-field                           R   N=          35
  0.00000000E+00  0.00000000E+00  0.00000000E+00  0.00000000E+00  0.00000000E+00
  0.00000000E+00  0.00000000E+00  0.00000000E+00  0.00000000E+00  0.00000000E+00
  0.00000000E+00  0.00000000E+00  0.00000000E+00  0.00000000E+00  0.00000000E+00
  0.00000000E+00  0.00000000E+00  0.00000000E+00  0.00000000E+00  0.00000000E+00
  0.00000000E+00  0.00000000E+00  0.00000000E+00  0.00000000E+00  0.00000000E+00
  0.00000000E+00  0.00000000E+00  0.00000000E+00  0.00000000E+00  0.00000000E+00
  0.00000000E+00  0.00000000E+00  0.00000000E+00  0.00000000E+00  0.00000000E+00
IOpCl                                      I                0
IROHF                                      I                0
Alpha Orbital Energies                     R   N=         167
 -1.01533124E+02 -1.02469658E+01 -1.01961902E+01 -1.01863098E+01 -1.01815055E+01
 -9.44776384E+00 -7.21206936E+00 -7.20268424E+00 -7.20249696E+00 -8.68017877E-01
 -7.87503795E-01 -7.39811446E-01 -6.39157624E-01 -5.77840566E-01 -4.86386161E-01
 -4.74375148E-01 -4.42890726E-01 -4.16979604E-01 -4.04046632E-01 -3.74649166E-01
 -3.66488859E-01 -3.05519645E-01 -2.97088086E-01 -2.81388476E-01 -3.38321040E-02
 -7.54767894E-03  6.18222166E-03  7.32726109E-03  2.33129174E-02  2.82303201E-02
  3.82860300E-02  4.16229694E-02  6.29601682E-02  6.50779541E-02  7.06390119E-02
  8.36340829E-02  8.70356770E-02  1.00040362E-01  1.10564096E-01  1.16304327E-01
  1.18995458E-01  1.21873227E-01  1.28613930E-01  1.30828077E-01  1.35148169E-01
  1.40903973E-01  1.51080456E-01  1.58195358E-01  1.60635683E-01  1.63749308E-01
  1.70522494E-01  1.83102952E-01  1.93219118E-01  2.13220435E-01  2.19526996E-01
  2.22822815E-01  2.47667355E-01  2.64719853E-01  2.70759829E-01  2.91426492E-01
  3.35355966E-01  3.54670025E-01  3.88502918E-01  4.24513207E-01  4.34333159E-01
  4.47039686E-01  4.56795936E-01  4.79505210E-01  4.85863265E-01  4.96044270E-01
  5.25269965E-01  5.28135183E-01  5.64400615E-01  5.83499351E-01  5.95100438E-01
  6.21869423E-01  6.29897543E-01  6.42370709E-01  6.57028200E-01  6.59158330E-01
  6.85484919E-01  7.06728203E-01  7.35261853E-01  7.40292943E-01  7.83971051E-01
  8.17607017E-01  8.29549055E-01  8.64548963E-01  8.93776152E-01  9.04568523E-01
  9.42599369E-01  9.52706041E-01  1.00419014E+00  1.03454714E+00  1.06936970E+00
  1.09801020E+00  1.11402036E+00  1.17460769E+00  1.19765085E+00  1.28859802E+00
  1.38909398E+00  1.43075091E+00  1.45158632E+00  1.46843818E+00  1.49933649E+00
  1.54408065E+00  1.56592917E+00  1.58694516E+00  1.59852762E+00  1.62710759E+00
  1.67113524E+00  1.68005686E+00  1.68984723E+00  1.72561764E+00  1.77564580E+00
  1.78619415E+00  1.87248591E+00  1.88546637E+00  1.94252394E+00  1.97220785E+00
  2.01481129E+00  2.06807365E+00  2.11020578E+00  2.17638363E+00  2.18489626E+00
  2.20765280E+00  2.25346481E+00  2.30096120E+00  2.30435337E+00  2.36004053E+00
  2.36950020E+00  2.45215070E+00  2.45743857E+00  2.49080672E+00  2.53458161E+00
  2.56609548E+00  2.56964361E+00  2.58441059E+00  2.59802497E+00  2.63092625E+00
  2.72506662E+00  2.73928133E+00  2.74473387E+00  2.77166732E+00  2.83605315E+00
  2.86132721E+00  2.92357954E+00  3.08480480E+00  3.08709777E+00  3.18459533E+00
  3.39768577E+00  3.49652791E+00  3.71508687E+00  3.78543748E+00  3.79210488E+00
  3.93828682E+00  4.10651057E+00  4.28444168E+00  9.75640881E+00  2.37169490E+01
  2.37863555E+01  2.39355254E+01  2.42386200E+01  2.59398507E+01  2.59844629E+01
  2.64481057E+01  2.15746494E+02
Alpha MO coefficients                      R   N=       27889
 -9.27089892E-08  3.44173142E-07 -2.24972081E-06 -1.11605417E-06 -2.10423202E-06
 -6.76329318E-06  1.62568116E-05  1.22568488E-05  1.39718929E-05  4.14692513E-05
  4.50288145E-05  1.99733807E-06  2.32768303E-05 -1.55654502E-03 -7.96702167E-05
  5.07862202E-04 -5.21485575E-05  5.47988204E-06 -3.83319523E-06 -2.58643718E-06
  1.07728777E-05 -2.44555992E-06  1.47761200E-06 -3.04137444E-06  1.30941211E-05
 -1.19319415E-05  4.74913000E-06 -1.45851064E-05 -1.68222554E-05  1.72653432E-05
 -1.84579188E-05  1.61463046E-04  1.22141101E-04 -1.31758669E-04 -3.35427759E-05
  3.09591519E-03 -5.01490474E-04  4.48381175E-04  6.96030236E-04  1.16392981E-05
 -1.05559268E-06  8.11641667E-07 -1.52311541E-06  9.16179999E-06 -6.69912117E-07
  1.95891829E-06  4.68455511E-06 -2.43943313E-06 -4.82147616E-06 -8.79493947E-06
 -2.66823940E-05  8.52718706E-06  2.66997568E-05  3.17099595E-05  2.08179200E-05
 -2.24583705E-06 -7.18924830E-05 -9.67256374E-04 -1.02435149E-03 -2.79711036E-04
 -1.29632175E-04  5.55772568E-06  6.81395168E-06 -6.76054821E-06 -1.45145963E-07
 -3.64312933E-06  2.65116217E-07 -7.85290494E-07 -1.41781974E-06  8.60296759E-07
  7.74521058E-07  8.89995709E-06  5.99580976E-06 -3.78306251E-06  5.89637538E-07
 -5.40004596E-05 -9.22635941E-05 -2.27719492E-05  6.41362833E-05 -1.47351439E-03
 -3.32736743E-04 -1.72211915E-04 -8.96038820E-05 -5.01809375E-06 -2.15720567E-06
 -3.06663806E-06 -2.32590512E-06 -1.16220283E-06 -2.86860064E-06  3.35380161E-05
  7.17492238E-05  7.34478014E-05  6.45001916E-06 -5.79330880E-07  6.23942328E-06
  1.07892443E-05 -8.16474923E-05  7.67647118E-05  1.68303393E-04  6.91639006E-06
  1.06150784E-05 -1.02359697E-05  2.42260004E-06 -2.40910987E-05 -5.88671555E-05
 -1.52647585E-04 -1.85840505E-06 -6.93028839E-07  1.44710872E-06  4.66362523E-06
 -2.90562249E-05  7.68206820E-05  1.35599823E-04 -1.01721869E-05  1.77676331E-06
  1.26262638E-05 -7.84396859E-07 -6.94094343E-05 -1.08910309E-04  8.28781969E-05
 -7.10759113E-06  1.77363271E-06 -1.70822637E-05  1.19887765E-05 -7.32153054E-05
  2.00131928E-05  1.36977944E-04 -4.97269240E-06  1.38814366E-05  1.54116876E-05
 -8.59394083E-06  4.21279527E-05 -1.18787487E-04 -3.10257983E-04  4.92383877E-07
 -4.83655987E-06 -9.15662486E-07  4.11609540E-01  6.54076105E-01  1.50043621E-02