 Entering Gaussian System, Link 0=g09
 Input=input.dat
 Output=output.dat
 Initial command:
 /cerebro/home/software/apps/g09/l1.exe /scratch/crawdad/Gau-24416.inp -scrdir=/scratch/crawdad/
 Entering Link 1 = /cerebro/home/software/apps/g09/l1.exe PID=     24417.
  
 Copyright (c) 1988,1990,1992,1993,1995,1998,2003,2009, Gaussian, Inc.
                  All Rights Reserved.
  
 This is part of the Gaussian(R) 09 program.  It is based on
 the Gaussian(R) 03 system (copyright 2003, Gaussian, Inc.),
 the Gaussian(R) 98 system (copyright 1998, Gaussian, Inc.),
 the Gaussian(R) 94 system (copyright 1995, Gaussian, Inc.),
 the Gaussian 92(TM) system (copyright 1992, Gaussian, Inc.),
 the Gaussian 90(TM) system (copyright 1990, Gaussian, Inc.),
 the Gaussian 88(TM) system (copyright 1988, Gaussian, Inc.),
 the Gaussian 86(TM) system (copyright 1986, Carnegie Mellon
 University), and the Gaussian 82(TM) system (copyright 1983,
 Carnegie Mellon University). Gaussian is a federally registered
 trademark of Gaussian, Inc.
  
 This software contains proprietary and confidential information,
 including trade secrets, belonging to Gaussian, Inc.
  
 This software is provided under written license and may be
 used, copied, transmitted, or stored only in accord with that
 written license.
  
 The following legend is applicable only to US Government
 contracts under FAR:
  
                    RESTRICTED RIGHTS LEGEND
  
 Use, reproduction and disclosure by the US Government is
 subject to restrictions as set forth in subparagraphs (a)
 and (c) of the Commercial Computer Software - Restricted
 Rights clause in FAR 52.227-19.
  
 Gaussian, Inc.
 340 Quinnipiac St., Bldg. 40, Wallingford CT 06492
  
  
 ---------------------------------------------------------------
 Warning -- This program may not be used in any manner that
 competes with the business of Gaussian, Inc. or will provide
 assistance to any competitor of Gaussian, Inc.  The licensee
 of this program is prohibited from giving any competitor of
 Gaussian, Inc. access to this program.  By using this program,
 the user acknowledges that Gaussian, Inc. is engaged in the
 business of creating and licensing software in the field of
 computational chemistry and represents and warrants to the
 licensee that it is not a competitor of Gaussian, Inc. and that
 it will not use this program in any manner prohibited above.
 ---------------------------------------------------------------
  

 Cite this work as:
 Gaussian 09, Revision A.02,
 M. J. Frisch, G. W. Trucks, H. B. Schlegel, G. E. Scuseria, 
 M. A. Robb, J. R. Cheeseman, G. Scalmani, V. Barone, B. Mennucci, 
 G. A. Petersson, H. Nakatsuji, M. Caricato, X. Li, H. P. Hratchian, 
 A. F. Izmaylov, J. Bloino, G. Zheng, J. L. Sonnenberg, M. Hada, 
 M. Ehara, K. Toyota, R. Fukuda, J. Hasegawa, M. Ishida, T. Nakajima, 
 Y. Honda, O. Kitao, H. Nakai, T. Vreven, J. A. Montgomery, Jr., 
 J. E. Peralta, F. Ogliaro, M. Bearpark, J. J. Heyd, E. Brothers, 
 K. N. Kudin, V. N. Staroverov, R. Kobayashi, J. Normand, 
 K. Raghavachari, A. Rendell, J. C. Burant, S. S. Iyengar, J. Tomasi, 
 M. Cossi, N. Rega, J. M. Millam, M. Klene, J. E. Knox, J. B. Cross, 
 V. Bakken, C. Adamo, J. Jaramillo, R. Gomperts, R. E. Stratmann, 
 O. Yazyev, A. J. Austin, R. Cammi, C. Pomelli, J. W. Ochterski, 
 R. L. Martin, K. Morokuma, V. G. Zakrzewski, G. A. Voth, 
 P. Salvador, J. J. Dannenberg, S. Dapprich, A. D. Daniels, 
 O. Farkas, J. B. Foresman, J. V. Ortiz, J. Cioslowski, 
 and D. J. Fox, Gaussian, Inc., Wallingford CT, 2009.
 
 ******************************************
 Gaussian 09:  EM64L-G09RevA.02 11-Jun-2009
                10-Jul-2013 
 ******************************************
 %chk=vibave
 %mem=1000mb
 %nproc=1
 Will use up to    1 processors via shared memory.
 ----------------------------------------------------------------------
 #P B3LYP/6-311++G** scf(conver=11) int=ultrafine polar=optrot cphf(rdf
 req,conver=11)
 ----------------------------------------------------------------------
 1/38=1,83=21/1;
 2/12=2,17=6,18=5,40=1/2;
 3/5=4,6=6,7=1111,11=2,16=1,25=1,30=1,36=2,74=-5,75=-5/1,2,3;
 4//1;
 5/5=2,6=11,38=5,96=-2,98=1/2;
 8/6=4,10=90,11=11/1;
 10/6=1,7=11,13=10,46=8,60=-2,72=3/2;
 6/7=2,8=2,9=2,10=2,28=1/1;
 99/5=1,9=1/99;
 Leave Link    1 at Wed Jul 10 16:50:08 2013, MaxMem=  131072000 cpu:       0.1
 (Enter /cerebro/home/software/apps/g09/l101.exe)
 -----------------------------
 (R)-3-chloro-1-butene tau=120
 -----------------------------
 Symbolic Z-matrix:
 Charge =  0 Multiplicity = 1
 C                     0.47026   1.75423   0.03829 
 C                     0.00092   0.34659  -0.32393 
 C                    -1.19499  -0.09275   0.42776 
 C                    -2.32949  -0.49677  -0.15243 
 H                    -2.48802  -0.57232  -1.22755 
 H                     1.3749    2.01824  -0.51084 
 H                    -3.23533  -0.80364   0.36645 
 H                    -1.15616  -0.07165   1.51508 
 H                    -0.13538   0.27016  -1.40188 
 H                     0.66141   1.8396    1.11065 
 H                    -0.32222   2.4723   -0.19644 
 Cl                    1.38596  -0.83727   0.02284 
 
 NAtoms=     12 NQM=     12 NQMF=      0 NMic=      0 NMicF=      0 NTot=     12.
                    Isotopes and Nuclear Properties:
 (Nuclear quadrupole moments (NQMom) in fm**2, nuclear magnetic moments (NMagM)
  in nuclear magnetons)

  Atom         1           2           3           4           5           6           7           8           9          10
 IAtWgt=          12          12          12          12           1           1           1           1           1           1
 AtmWgt=  12.0000000  12.0000000  12.0000000  12.0000000   1.0078250   1.0078250   1.0078250   1.0078250   1.0078250   1.0078250
 NucSpn=           0           0           0           0           1           1           1           1           1           1
 AtZEff=   0.0000000   0.0000000   0.0000000   0.0000000   0.0000000   0.0000000   0.0000000   0.0000000   0.0000000   0.0000000
 NQMom=    0.0000000   0.0000000   0.0000000   0.0000000   0.0000000   0.0000000   0.0000000   0.0000000   0.0000000   0.0000000
 NMagM=    0.0000000   0.0000000   0.0000000   0.0000000   2.7928460   2.7928460   2.7928460   2.7928460   2.7928460   2.7928460

  Atom        11          12
 IAtWgt=           1          35
 AtmWgt=   1.0078250  34.9688527
 NucSpn=           1           3
 AtZEff=   0.0000000   0.0000000
 NQMom=    0.0000000  -8.1650000
 NMagM=    2.7928460   0.8218740
 Using perturbation frequencies:    0.071980    0.077357    0.104503    0.128347
 Leave Link  101 at Wed Jul 10 16:50:09 2013, MaxMem=  131072000 cpu:       0.1
 (Enter /cerebro/home/software/apps/g09/l202.exe)
                          Input orientation:                          
 ---------------------------------------------------------------------
 Center     Atomic      Atomic             Coordinates (Angstroms)
 Number     Number       Type             X           Y           Z
 ---------------------------------------------------------------------
      1          6           0        0.470261    1.754234    0.038289
      2          6           0        0.000922    0.346594   -0.323929
      3          6           0       -1.194994   -0.092750    0.427764
      4          6           0       -2.329491   -0.496772   -0.152428
      5          1           0       -2.488023   -0.572324   -1.227551
      6          1           0        1.374902    2.018243   -0.510840
      7          1           0       -3.235328   -0.803644    0.366451
      8          1           0       -1.156163   -0.071646    1.515081
      9          1           0       -0.135380    0.270156   -1.401879
     10          1           0        0.661412    1.839599    1.110646
     11          1           0       -0.322217    2.472299   -0.196439
     12         17           0        1.385962   -0.837271    0.022838
 ---------------------------------------------------------------------
                    Distance matrix (angstroms):
                    1          2          3          4          5
     1  C    0.000000
     2  C    1.527393   0.000000
     3  C    2.517163   1.479283   0.000000
     4  C    3.597501   2.484251   1.336765   0.000000
     5  H    3.970726   2.802818   2.154526   1.089372   0.000000
     6  H    1.090696   2.171904   3.455666   4.491802   4.706049
     7  H    4.514622   3.503282   2.161502   1.088092   1.775617
     8  H    2.856572   2.212629   1.088215   2.082791   3.089751
     9  H    2.154848   1.089218   2.145245   2.638832   2.505014
    10  H    1.092600   2.173319   2.765238   3.999936   4.604724
    11  H    1.094868   2.153902   2.780440   3.584197   3.876034
    12  Cl   2.748571   1.854756   2.716544   3.735138   4.079391
                    6          7          8          9         10
     6  H    0.000000
     7  H    5.476030   0.000000
     8  H    3.857238   2.485578   0.000000
     9  H    2.476027   3.726891   3.109258   0.000000
    10  H    1.780505   4.767089   2.668334   3.067704   0.000000
    11  H    1.784720   4.419826   3.177488   2.517425   1.753940
    12  Cl   2.904978   4.634169   3.045549   2.360231   2.978914
                   11         12
    11  H    0.000000
    12  Cl   3.730846   0.000000
 Stoichiometry    C4H7Cl
 Framework group  C1[X(C4H7Cl)]
 Deg. of freedom    30
 Full point group                 C1      NOp   1
 Largest Abelian subgroup         C1      NOp   1
 Largest concise Abelian subgroup C1      NOp   1
                         Standard orientation:                         
 ---------------------------------------------------------------------
 Center     Atomic      Atomic             Coordinates (Angstroms)
 Number     Number       Type             X           Y           Z
 ---------------------------------------------------------------------
      1          6           0        0.475106    1.753610    0.034934
      2          6           0        0.002447    0.346284   -0.324173
      3          6           0       -1.193397   -0.089287    0.429825
      4          6           0       -2.329453   -0.492036   -0.148199
      5          1           0       -2.489510   -0.569182   -1.222983
      6          1           0        1.379579    2.014801   -0.515817
      7          1           0       -3.235247   -0.796140    0.372379
      8          1           0       -1.153135   -0.066324    1.517052
      9          1           0       -0.135385    0.268202   -1.401810
     10          1           0        0.667799    1.840499    1.106892
     11          1           0       -0.316211    2.472866   -0.200068
     12         17           0        1.385523   -0.839774    0.022943
 ---------------------------------------------------------------------
 Rotational constants (GHZ):      5.5591089      2.7448521      2.0014294
 Leave Link  202 at Wed Jul 10 16:50:09 2013, MaxMem=  131072000 cpu:       0.0
 (Enter /cerebro/home/software/apps/g09/l301.exe)
 Standard basis: 6-311++G(d,p) (5D, 7F)
 Ernie: Thresh=  0.10000D-02 Tol=  0.10000D-05 Strict=F.
 There are   167 symmetry adapted basis functions of A   symmetry.
 Integral buffers will be    131072 words long.
 Raffenetti 2 integral format.
 Two-electron integral symmetry is turned on.
   167 basis functions,   260 primitive gaussians,   172 cartesian basis functions
    24 alpha electrons       24 beta electrons
       nuclear repulsion energy       211.6106293413 Hartrees.
 IExCor=  402 DFT=T Ex+Corr=B3LYP ExCW=0 ScaHFX=  0.200000
 ScaDFX=  0.800000  0.720000  1.000000  0.810000 ScalE2=  1.000000  1.000000
 IRadAn=      5 IRanWt=     -1 IRanGd=            0 ICorTp=0
 NAtoms=   12 NActive=   12 NUniq=   12 SFac= 7.50D-01 NAtFMM=   80 NAOKFM=F Big=F
 Leave Link  301 at Wed Jul 10 16:50:09 2013, MaxMem=  131072000 cpu:       0.1
 (Enter /cerebro/home/software/apps/g09/l302.exe)
 NPDir=0 NMtPBC=     1 NCelOv=     1 NCel=       1 NClECP=     1 NCelD=      1
         NCelK=      1 NCelE2=     1 NClLst=     1 CellRange=     0.0.
 One-electron integrals computed using PRISM.
 NBasis=   167 RedAO= T  NBF=   167
 NBsUse=   167 1.00D-06 NBFU=   167
 Precomputing XC quadrature grid using
 IXCGrd= 2 IRadAn=           5 IRanWt=          -1 IRanGd=           0 AccXCQ= 1.00D-10.
 NRdTot=    1019 NPtTot=      274288 NUsed=      281590 NTot=      281622
 NSgBfM=   172   172   172   172   172 NAtAll=    12    12.
 Leave Link  302 at Wed Jul 10 16:50:09 2013, MaxMem=  131072000 cpu:       0.6
 (Enter /cerebro/home/software/apps/g09/l303.exe)
 DipDrv:  MaxL=2.
 Leave Link  303 at Wed Jul 10 16:50:09 2013, MaxMem=  131072000 cpu:       0.1
 (Enter /cerebro/home/software/apps/g09/l401.exe)
 Harris functional with IExCor=  402 diagonalized for initial guess.
 ExpMin= 3.60D-02 ExpMax= 1.06D+05 ExpMxC= 3.62D+03 IAcc=3 IRadAn=         5 AccDes= 0.00D+00
 HarFok:  IExCor=  402 AccDes= 0.00D+00 IRadAn=         5 IDoV= 1
 ScaDFX=  1.000000  1.000000  1.000000  1.000000
 FoFCou: FMM=F IPFlag=           0 FMFlag=      100000 FMFlg1=           0
         NFxFlg=           0 DoJE=T BraDBF=F KetDBF=T FulRan=T
         Omega=  0.000000  0.000000  1.000000  0.000000  0.000000 ICntrl=     500 IOpCl=  0
         NMat0=    1 NMatS0=    1 NMatT0=    0 NMatD0=    1 NMtDS0=    0 NMtDT0=    0
         I1Cent=           4 NGrid=           0.
 Petite list used in FoFCou.
 Harris En= -616.910934493395    
 Initial guess orbital symmetries:
       Occupied  (A) (A) (A) (A) (A) (A) (A) (A) (A) (A) (A) (A)
                 (A) (A) (A) (A) (A) (A) (A) (A) (A) (A) (A) (A)
       Virtual   (A) (A) (A) (A) (A) (A) (A) (A) (A) (A) (A) (A)
                 (A) (A) (A) (A) (A) (A) (A) (A) (A) (A) (A) (A)
                 (A) (A) (A) (A) (A) (A) (A) (A) (A) (A) (A) (A)
                 (A) (A) (A) (A) (A) (A) (A) (A) (A) (A) (A) (A)
                 (A) (A) (A) (A) (A) (A) (A) (A) (A) (A) (A) (A)
                 (A) (A) (A) (A) (A) (A) (A) (A) (A) (A) (A) (A)
                 (A) (A) (A) (A) (A) (A) (A) (A) (A) (A) (A) (A)
                 (A) (A) (A) (A) (A) (A) (A) (A) (A) (A) (A) (A)
                 (A) (A) (A) (A) (A) (A) (A) (A) (A) (A) (A) (A)
                 (A) (A) (A) (A) (A) (A) (A) (A) (A) (A) (A) (A)
                 (A) (A) (A) (A) (A) (A) (A) (A) (A) (A) (A) (A)
                 (A) (A) (A) (A) (A) (A) (A) (A) (A) (A) (A)
 The electronic state of the initial guess is 1-A.
 Leave Link  401 at Wed Jul 10 16:50:17 2013, MaxMem=  131072000 cpu:       7.4
 (Enter /cerebro/home/software/apps/g09/l502.exe)
 Closed shell SCF:
 Requested convergence on RMS density matrix=1.00D-11 within 128 cycles.
 Requested convergence on MAX density matrix=1.00D-09.
 Requested convergence on             energy=1.00D-09.
 No special actions if energy rises.
 Using DIIS extrapolation, IDIIS=  1040.
 Integral symmetry usage will be decided dynamically.
       281469 words used for storage of precomputed grid.
 Keep R1 ints in memory in canonical form, NReq=113664361.
 IEnd=      390694 IEndB=      390694 NGot=   131072000 MDV=    20042794
 LenX=    20042794 LenY=    20012769
 Symmetry not used in FoFDir.
 MinBra= 0 MaxBra= 2 Meth= 1.
 IRaf=       0 NMat=   1 IRICut=       1 DoRegI=T DoRafI=F ISym2E= 0 JSym2E=0.

 Cycle   1  Pass 1  IDiag  1:
 E= -616.723032798352    
 DIIS: error= 2.68D-02 at cycle   1 NSaved=   1.
 NSaved= 1 IEnMin= 1 EnMin= -616.723032798352     IErMin= 1 ErrMin= 2.68D-02
 ErrMax= 2.68D-02 EMaxC= 1.00D-01 BMatC= 2.03D-01 BMatP= 2.03D-01
 IDIUse=3 WtCom= 7.32D-01 WtEn= 2.68D-01
 Coeff-Com:  0.100D+01
 Coeff-En:   0.100D+01
 Coeff:      0.100D+01
 Gap=     0.389 Goal=   None    Shift=    0.000
 GapD=    0.389 DampG=1.000 DampE=0.500 DampFc=0.5000 IDamp=-1.
 Damping current iteration by 5.00D-01
 RMSDP=6.53D-03 MaxDP=1.44D-01              OVMax= 2.19D-01

 Cycle   2  Pass 1  IDiag  1:
 E= -616.793582111526     Delta-E=       -0.070549313175 Rises=F Damp=T
 DIIS: error= 6.03D-03 at cycle   2 NSaved=   2.
 NSaved= 2 IEnMin= 2 EnMin= -616.793582111526     IErMin= 2 ErrMin= 6.03D-03
 ErrMax= 6.03D-03 EMaxC= 1.00D-01 BMatC= 1.29D-02 BMatP= 2.03D-01
 IDIUse=3 WtCom= 9.40D-01 WtEn= 6.03D-02
 Coeff-Com:  0.397D-01 0.960D+00
 Coeff-En:   0.182D+00 0.818D+00
 Coeff:      0.483D-01 0.952D+00
 Gap=     0.285 Goal=   None    Shift=    0.000
 RMSDP=4.61D-03 MaxDP=2.28D-01 DE=-7.05D-02 OVMax= 1.24D-01

 Cycle   3  Pass 1  IDiag  1:
 E= -616.887786944890     Delta-E=       -0.094204833363 Rises=F Damp=F
 DIIS: error= 6.33D-03 at cycle   3 NSaved=   3.
 NSaved= 3 IEnMin= 3 EnMin= -616.887786944890     IErMin= 2 ErrMin= 6.03D-03
 ErrMax= 6.33D-03 EMaxC= 1.00D-01 BMatC= 5.29D-03 BMatP= 1.29D-02
 IDIUse=3 WtCom= 9.37D-01 WtEn= 6.33D-02
 Coeff-Com: -0.626D-01 0.350D+00 0.713D+00
 Coeff-En:   0.000D+00 0.000D+00 0.100D+01
 Coeff:     -0.587D-01 0.328D+00 0.731D+00
 Gap=     0.256 Goal=   None    Shift=    0.000
 RMSDP=1.96D-03 MaxDP=6.09D-02 DE=-9.42D-02 OVMax= 2.63D-02

 Cycle   4  Pass 1  IDiag  1:
 E= -616.891744149466     Delta-E=       -0.003957204577 Rises=F Damp=F
 DIIS: error= 3.44D-03 at cycle   4 NSaved=   4.
 NSaved= 4 IEnMin= 4 EnMin= -616.891744149466     IErMin= 4 ErrMin= 3.44D-03
 ErrMax= 3.44D-03 EMaxC= 1.00D-01 BMatC= 2.05D-03 BMatP= 5.29D-03
 IDIUse=3 WtCom= 9.66D-01 WtEn= 3.44D-02
 Coeff-Com: -0.378D-01 0.127D+00 0.446D+00 0.465D+00
 Coeff-En:   0.000D+00 0.000D+00 0.251D+00 0.749D+00
 Coeff:     -0.365D-01 0.122D+00 0.440D+00 0.475D+00
 Gap=     0.244 Goal=   None    Shift=    0.000
 RMSDP=5.92D-04 MaxDP=1.77D-02 DE=-3.96D-03 OVMax= 1.42D-02

 Cycle   5  Pass 1  IDiag  1:
 E= -616.893666046655     Delta-E=       -0.001921897188 Rises=F Damp=F
 DIIS: error= 6.14D-04 at cycle   5 NSaved=   5.
 NSaved= 5 IEnMin= 5 EnMin= -616.893666046655     IErMin= 5 ErrMin= 6.14D-04
 ErrMax= 6.14D-04 EMaxC= 1.00D-01 BMatC= 8.19D-05 BMatP= 2.05D-03
 IDIUse=3 WtCom= 9.94D-01 WtEn= 6.14D-03
 Coeff-Com: -0.143D-01 0.420D-01 0.186D+00 0.242D+00 0.544D+00
 Coeff-En:   0.000D+00 0.000D+00 0.000D+00 0.000D+00 0.100D+01
 Coeff:     -0.142D-01 0.417D-01 0.185D+00 0.240D+00 0.547D+00
 Gap=     0.245 Goal=   None    Shift=    0.000
 RMSDP=1.00D-04 MaxDP=3.52D-03 DE=-1.92D-03 OVMax= 6.71D-03

 Cycle   6  Pass 1  IDiag  1:
 E= -616.893737152480     Delta-E=       -0.000071105825 Rises=F Damp=F
 DIIS: error= 2.93D-04 at cycle   6 NSaved=   6.
 NSaved= 6 IEnMin= 6 EnMin= -616.893737152480     IErMin= 6 ErrMin= 2.93D-04
 ErrMax= 2.93D-04 EMaxC= 1.00D-01 BMatC= 1.58D-05 BMatP= 8.19D-05
 IDIUse=3 WtCom= 9.97D-01 WtEn= 2.93D-03
 Coeff-Com: -0.351D-02 0.671D-02 0.523D-01 0.769D-01 0.329D+00 0.538D+00
 Coeff-En:   0.000D+00 0.000D+00 0.000D+00 0.000D+00 0.160D+00 0.840D+00
 Coeff:     -0.350D-02 0.669D-02 0.522D-01 0.767D-01 0.329D+00 0.539D+00
 Gap=     0.245 Goal=   None    Shift=    0.000
 RMSDP=4.66D-05 MaxDP=1.54D-03 DE=-7.11D-05 OVMax= 2.23D-03

 Cycle   7  Pass 1  IDiag  1:
 E= -616.893752631705     Delta-E=       -0.000015479225 Rises=F Damp=F
 DIIS: error= 3.47D-05 at cycle   7 NSaved=   7.
 NSaved= 7 IEnMin= 7 EnMin= -616.893752631705     IErMin= 7 ErrMin= 3.47D-05
 ErrMax= 3.47D-05 EMaxC= 1.00D-01 BMatC= 4.23D-07 BMatP= 1.58D-05
 IDIUse=1 WtCom= 1.00D+00 WtEn= 0.00D+00
 Coeff-Com: -0.651D-03 0.307D-03 0.120D-01 0.183D-01 0.104D+00 0.233D+00
 Coeff-Com:  0.633D+00
 Coeff:     -0.651D-03 0.307D-03 0.120D-01 0.183D-01 0.104D+00 0.233D+00
 Coeff:      0.633D+00
 Gap=     0.245 Goal=   None    Shift=    0.000
 RMSDP=1.01D-05 MaxDP=3.65D-04 DE=-1.55D-05 OVMax= 1.74D-04

 Cycle   8  Pass 1  IDiag  1:
 E= -616.893753015401     Delta-E=       -0.000000383696 Rises=F Damp=F
 DIIS: error= 6.82D-06 at cycle   8 NSaved=   8.
 NSaved= 8 IEnMin= 8 EnMin= -616.893753015401     IErMin= 8 ErrMin= 6.82D-06
 ErrMax= 6.82D-06 EMaxC= 1.00D-01 BMatC= 1.79D-08 BMatP= 4.23D-07
 IDIUse=1 WtCom= 1.00D+00 WtEn= 0.00D+00
 Coeff-Com:  0.545D-04-0.359D-03 0.669D-03 0.128D-02 0.164D-01 0.543D-01
 Coeff-Com:  0.231D+00 0.697D+00
 Coeff:      0.545D-04-0.359D-03 0.669D-03 0.128D-02 0.164D-01 0.543D-01
 Coeff:      0.231D+00 0.697D+00
 Gap=     0.245 Goal=   None    Shift=    0.000
 RMSDP=1.93D-06 MaxDP=4.44D-05 DE=-3.84D-07 OVMax= 4.61D-05

 Cycle   9  Pass 1  IDiag  1:
 E= -616.893753032270     Delta-E=       -0.000000016869 Rises=F Damp=F
 DIIS: error= 2.12D-06 at cycle   9 NSaved=   9.
 NSaved= 9 IEnMin= 9 EnMin= -616.893753032270     IErMin= 9 ErrMin= 2.12D-06
 ErrMax= 2.12D-06 EMaxC= 1.00D-01 BMatC= 1.19D-09 BMatP= 1.79D-08
 IDIUse=1 WtCom= 1.00D+00 WtEn= 0.00D+00
 Coeff-Com:  0.424D-04-0.100D-03-0.476D-03-0.652D-03-0.229D-02-0.638D-03
 Coeff-Com:  0.200D-01 0.243D+00 0.741D+00
 Coeff:      0.424D-04-0.100D-03-0.476D-03-0.652D-03-0.229D-02-0.638D-03
 Coeff:      0.200D-01 0.243D+00 0.741D+00
 Gap=     0.245 Goal=   None    Shift=    0.000
 RMSDP=9.17D-07 MaxDP=3.38D-05 DE=-1.69D-08 OVMax= 8.85D-06

 Cycle  10  Pass 1  IDiag  1:
 E= -616.893753033452     Delta-E=       -0.000000001182 Rises=F Damp=F
 DIIS: error= 3.44D-07 at cycle  10 NSaved=  10.
 NSaved=10 IEnMin=10 EnMin= -616.893753033452     IErMin=10 ErrMin= 3.44D-07
 ErrMax= 3.44D-07 EMaxC= 1.00D-01 BMatC= 2.99D-11 BMatP= 1.19D-09
 IDIUse=1 WtCom= 1.00D+00 WtEn= 0.00D+00
 Coeff-Com:  0.949D-05-0.161D-04-0.160D-03-0.221D-03-0.110D-02-0.146D-02
 Coeff-Com:  0.387D-03 0.630D-01 0.237D+00 0.703D+00
 Coeff:      0.949D-05-0.161D-04-0.160D-03-0.221D-03-0.110D-02-0.146D-02
 Coeff:      0.387D-03 0.630D-01 0.237D+00 0.703D+00
 Gap=     0.245 Goal=   None    Shift=    0.000
 RMSDP=1.39D-07 MaxDP=6.07D-06 DE=-1.18D-09 OVMax= 1.66D-06

 Cycle  11  Pass 1  IDiag  1:
 E= -616.893753033477     Delta-E=       -0.000000000025 Rises=F Damp=F
 DIIS: error= 1.34D-07 at cycle  11 NSaved=  11.
 NSaved=11 IEnMin=11 EnMin= -616.893753033477     IErMin=11 ErrMin= 1.34D-07
 ErrMax= 1.34D-07 EMaxC= 1.00D-01 BMatC= 5.65D-12 BMatP= 2.99D-11
 IDIUse=1 WtCom= 1.00D+00 WtEn= 0.00D+00
 Coeff-Com:  0.196D-05-0.206D-05-0.508D-04-0.706D-04-0.388D-03-0.609D-03
 Coeff-Com: -0.106D-02 0.140D-01 0.639D-01 0.347D+00 0.578D+00
 Coeff:      0.196D-05-0.206D-05-0.508D-04-0.706D-04-0.388D-03-0.609D-03
 Coeff:     -0.106D-02 0.140D-01 0.639D-01 0.347D+00 0.578D+00
 Gap=     0.245 Goal=   None    Shift=    0.000
 RMSDP=3.46D-08 MaxDP=1.14D-06 DE=-2.55D-11 OVMax= 5.09D-07

 Cycle  12  Pass 1  IDiag  1:
 E= -616.893753033482     Delta-E=       -0.000000000005 Rises=F Damp=F
 DIIS: error= 2.35D-08 at cycle  12 NSaved=  12.
 NSaved=12 IEnMin=12 EnMin= -616.893753033482     IErMin=12 ErrMin= 2.35D-08
 ErrMax= 2.35D-08 EMaxC= 1.00D-01 BMatC= 1.45D-13 BMatP= 5.65D-12
 IDIUse=1 WtCom= 1.00D+00 WtEn= 0.00D+00
 Coeff-Com: -0.247D-06 0.736D-06-0.174D-05-0.403D-05-0.314D-04-0.315D-04
 Coeff-Com: -0.332D-03-0.125D-02-0.144D-03 0.419D-01 0.152D+00 0.808D+00
 Coeff:     -0.247D-06 0.736D-06-0.174D-05-0.403D-05-0.314D-04-0.315D-04
 Coeff:     -0.332D-03-0.125D-02-0.144D-03 0.419D-01 0.152D+00 0.808D+00
 Gap=     0.245 Goal=   None    Shift=    0.000
 RMSDP=1.14D-08 MaxDP=5.72D-07 DE=-4.66D-12 OVMax= 1.35D-07

 Cycle  13  Pass 1  IDiag  1:
 E= -616.893753033484     Delta-E=       -0.000000000002 Rises=F Damp=F
 DIIS: error= 4.98D-09 at cycle  13 NSaved=  13.
 NSaved=13 IEnMin=13 EnMin= -616.893753033484     IErMin=13 ErrMin= 4.98D-09
 ErrMax= 4.98D-09 EMaxC= 1.00D-01 BMatC= 5.22D-15 BMatP= 1.45D-13
 IDIUse=1 WtCom= 1.00D+00 WtEn= 0.00D+00
 Coeff-Com: -0.140D-06 0.308D-06 0.115D-05 0.933D-06 0.142D-07 0.709D-05
 Coeff-Com: -0.903D-04-0.797D-03-0.190D-02 0.227D-02 0.267D-01 0.239D+00
 Coeff-Com:  0.735D+00
 Coeff:     -0.140D-06 0.308D-06 0.115D-05 0.933D-06 0.142D-07 0.709D-05
 Coeff:     -0.903D-04-0.797D-03-0.190D-02 0.227D-02 0.267D-01 0.239D+00
 Coeff:      0.735D+00
 Gap=     0.245 Goal=   None    Shift=    0.000
 RMSDP=2.89D-09 MaxDP=1.17D-07 DE=-1.93D-12 OVMax= 1.94D-08

 Cycle  14  Pass 1  IDiag  1:
 E= -616.893753033485     Delta-E=       -0.000000000001 Rises=F Damp=F
 DIIS: error= 7.94D-10 at cycle  14 NSaved=  14.
 NSaved=14 IEnMin=14 EnMin= -616.893753033485     IErMin=14 ErrMin= 7.94D-10
 ErrMax= 7.94D-10 EMaxC= 1.00D-01 BMatC= 2.11D-16 BMatP= 5.22D-15
 IDIUse=1 WtCom= 1.00D+00 WtEn= 0.00D+00
 Coeff-Com: -0.101D-07 0.210D-07 0.326D-06 0.386D-06 0.110D-05 0.283D-05
 Coeff-Com: -0.517D-05-0.103D-03-0.435D-03-0.188D-02-0.253D-02 0.114D-01
 Coeff-Com:  0.184D+00 0.810D+00
 Coeff:     -0.101D-07 0.210D-07 0.326D-06 0.386D-06 0.110D-05 0.283D-05
 Coeff:     -0.517D-05-0.103D-03-0.435D-03-0.188D-02-0.253D-02 0.114D-01
 Coeff:      0.184D+00 0.810D+00
 Gap=     0.245 Goal=   None    Shift=    0.000
 RMSDP=6.94D-10 MaxDP=2.62D-08 DE=-6.82D-13 OVMax= 4.24D-09

 Cycle  15  Pass 1  IDiag  1:
 E= -616.893753033483     Delta-E=        0.000000000001 Rises=F Damp=F
 DIIS: error= 2.01D-10 at cycle  15 NSaved=  15.
 NSaved=15 IEnMin=14 EnMin= -616.893753033485     IErMin=15 ErrMin= 2.01D-10
 ErrMax= 2.01D-10 EMaxC= 1.00D-01 BMatC= 3.92D-18 BMatP= 2.11D-16
 IDIUse=1 WtCom= 1.00D+00 WtEn= 0.00D+00
 Coeff-Com:  0.741D-09-0.155D-08 0.413D-07 0.726D-07 0.204D-06 0.400D-06
 Coeff-Com:  0.919D-06-0.987D-06-0.403D-04-0.378D-03-0.117D-02-0.332D-02
 Coeff-Com:  0.160D-01 0.145D+00 0.843D+00
 Coeff:      0.741D-09-0.155D-08 0.413D-07 0.726D-07 0.204D-06 0.400D-06
 Coeff:      0.919D-06-0.987D-06-0.403D-04-0.378D-03-0.117D-02-0.332D-02
 Coeff:      0.160D-01 0.145D+00 0.843D+00
 Gap=     0.245 Goal=   None    Shift=    0.000
 RMSDP=1.10D-10 MaxDP=4.49D-09 DE= 1.36D-12 OVMax= 8.17D-10

 Cycle  16  Pass 1  IDiag  1:
 E= -616.893753033483     Delta-E=        0.000000000000 Rises=F Damp=F
 DIIS: error= 5.29D-11 at cycle  16 NSaved=  16.
 NSaved=16 IEnMin=14 EnMin= -616.893753033485     IErMin=16 ErrMin= 5.29D-11
 ErrMax= 5.29D-11 EMaxC= 1.00D-01 BMatC= 2.27D-19 BMatP= 3.92D-18
 IDIUse=1 WtCom= 1.00D+00 WtEn= 0.00D+00
 Large coefficients: NSaved= 16 BigCof=    0.00 CofMax=   10.00 Det=-2.40D-18
 Inversion failed.  Reducing to 15 matrices.
 Coeff-Com: -0.178D-09 0.461D-08 0.133D-07 0.400D-07 0.822D-07 0.399D-06
 Coeff-Com:  0.166D-05 0.104D-05-0.288D-04-0.191D-03-0.964D-03-0.213D-02
 Coeff-Com:  0.472D-02 0.200D+00 0.798D+00
 Coeff:     -0.178D-09 0.461D-08 0.133D-07 0.400D-07 0.822D-07 0.399D-06
 Coeff:      0.166D-05 0.104D-05-0.288D-04-0.191D-03-0.964D-03-0.213D-02
 Coeff:      0.472D-02 0.200D+00 0.798D+00
 Gap=     0.245 Goal=   None    Shift=    0.000
 RMSDP=2.75D-11 MaxDP=1.20D-09 DE= 1.14D-13 OVMax= 2.00D-10

 Cycle  17  Pass 1  IDiag  1:
 E= -616.893753033483     Delta-E=        0.000000000000 Rises=F Damp=F
 DIIS: error= 8.56D-12 at cycle  17 NSaved=  16.
 NSaved=16 IEnMin=13 EnMin= -616.893753033485     IErMin=16 ErrMin= 8.56D-12
 ErrMax= 8.56D-12 EMaxC= 1.00D-01 BMatC= 9.50D-21 BMatP= 2.27D-19
 IDIUse=1 WtCom= 1.00D+00 WtEn= 0.00D+00
 Large coefficients: NSaved= 16 BigCof=    0.00 CofMax=   10.00 Det=-1.17D-19
 Inversion failed.  Reducing to 15 matrices.
 Coeff-Com: -0.123D-08-0.801D-09-0.227D-08 0.978D-09 0.576D-07 0.486D-06
 Coeff-Com:  0.249D-05 0.114D-04 0.383D-05-0.103D-03-0.132D-02-0.609D-02
 Coeff-Com:  0.134D-01 0.208D+00 0.786D+00
 Coeff:     -0.123D-08-0.801D-09-0.227D-08 0.978D-09 0.576D-07 0.486D-06
 Coeff:      0.249D-05 0.114D-04 0.383D-05-0.103D-03-0.132D-02-0.609D-02
 Coeff:      0.134D-01 0.208D+00 0.786D+00
 Gap=     0.245 Goal=   None    Shift=    0.000
 RMSDP=1.23D-11 MaxDP=8.11D-10 DE=-3.41D-13 OVMax= 3.15D-11

 Cycle  18  Pass 1  IDiag  1:
 E= -616.893753033483     Delta-E=        0.000000000001 Rises=F Damp=F
 DIIS: error= 1.77D-12 at cycle  18 NSaved=  16.
 NSaved=16 IEnMin=12 EnMin= -616.893753033485     IErMin=16 ErrMin= 1.77D-12
 ErrMax= 1.77D-12 EMaxC= 1.00D-01 BMatC= 4.03D-22 BMatP= 9.50D-21
 IDIUse=1 WtCom= 1.00D+00 WtEn= 0.00D+00
 Large coefficients: NSaved= 16 BigCof=    0.00 CofMax=   10.00 Det=-3.70D-21
 Inversion failed.  Reducing to 15 matrices.
 Coeff-Com:  0.188D-10 0.908D-09 0.142D-08 0.112D-07 0.316D-07 0.190D-06
 Coeff-Com:  0.744D-06-0.267D-06-0.142D-04-0.103D-03-0.737D-03-0.658D-03
 Coeff-Com:  0.204D-01 0.150D+00 0.831D+00
 Coeff:      0.188D-10 0.908D-09 0.142D-08 0.112D-07 0.316D-07 0.190D-06
 Coeff:      0.744D-06-0.267D-06-0.142D-04-0.103D-03-0.737D-03-0.658D-03
 Coeff:      0.204D-01 0.150D+00 0.831D+00
 Gap=     0.245 Goal=   None    Shift=    0.000
 RMSDP=1.92D-11 MaxDP=1.52D-09 DE= 7.96D-13 OVMax= 7.49D-12

 Cycle  19  Pass 1  IDiag  1:
 E= -616.893753033483     Delta-E=        0.000000000000 Rises=F Damp=F
 DIIS: error= 1.71D-12 at cycle  19 NSaved=  16.
 NSaved=16 IEnMin=11 EnMin= -616.893753033485     IErMin=16 ErrMin= 1.71D-12
 ErrMax= 1.71D-12 EMaxC= 1.00D-01 BMatC= 1.32D-22 BMatP= 4.03D-22
 IDIUse=1 WtCom= 1.00D+00 WtEn= 0.00D+00
 Large coefficients: NSaved= 16 BigCof=    0.00 CofMax=   10.00 Det=-5.24D-22
 Inversion failed.  Reducing to 15 matrices.
 Coeff-Com:  0.228D-09-0.983D-10 0.399D-09-0.894D-09 0.456D-07 0.461D-06
 Coeff-Com:  0.896D-06-0.499D-06-0.221D-04-0.247D-03-0.957D-03 0.203D-02
 Coeff-Com:  0.331D-01 0.313D+00 0.653D+00
 Coeff:      0.228D-09-0.983D-10 0.399D-09-0.894D-09 0.456D-07 0.461D-06
 Coeff:      0.896D-06-0.499D-06-0.221D-04-0.247D-03-0.957D-03 0.203D-02
 Coeff:      0.331D-01 0.313D+00 0.653D+00
 Gap=     0.245 Goal=   None    Shift=    0.000
 RMSDP=7.14D-12 MaxDP=3.23D-10 DE= 0.00D+00 OVMax= 2.88D-12

 SCF Done:  E(RB3LYP) =  -616.893753033     A.U. after   19 cycles
             Convg  =    0.7142D-11             -V/T =  2.0031
 KE= 6.149994228384D+02 PE=-1.879935899734D+03 EE= 4.364320945206D+02
 Leave Link  502 at Wed Jul 10 16:54:25 2013, MaxMem=  131072000 cpu:     247.4
 (Enter /cerebro/home/software/apps/g09/l801.exe)
 Range of M.O.s used for correlation:     1   167
 NBasis=   167 NAE=    24 NBE=    24 NFC=     0 NFV=     0
 NROrb=    167 NOA=    24 NOB=    24 NVA=   143 NVB=   143

 **** Warning!!: The largest alpha MO coefficient is  0.71201698D+02

 Leave Link  801 at Wed Jul 10 16:54:25 2013, MaxMem=  131072000 cpu:       0.0
 (Enter /cerebro/home/software/apps/g09/l1002.exe)
 Minotr:  Closed shell wavefunction.
          Direct CPHF calculation.
          Differentiating once with respect to magnetic field using GIAOs.
          Electric field/nuclear overlap derivatives assumed to be zero.
          Requested convergence is 1.0D-11 RMS, and 1.0D-10 maximum.
          NewPWx=F KeepS1=T KeepF1=T KeepIn=T MapXYZ=F SortEE=F KeepMc=T.
          MDV=     131071900 using IRadAn=       4.
 Generate precomputed XC quadrature information.
          Solving linear equations separately, MaxMat=       0.
          Doing perturbations at frequencies    0.071980    0.077357    0.104503    0.128347
 FoFCou: FMM=F IPFlag=           0 FMFlag=           0 FMFlg1=           0
         NFxFlg=           0 DoJE=F BraDBF=F KetDBF=T FulRan=T
         Omega=  0.000000  0.000000  1.000000  0.000000  0.000000 ICntrl=    6100 IOpCl=  0
         NMat0=    1 NMatS0=    1 NMatT0=    0 NMatD0=    1 NMtDS0=    0 NMtDT0=    0
         I1Cent=           7 NGrid=          12.
 Symmetry not used in FoFCou.
 Integrals replicated using symmetry in FoFDir.
 MinBra= 0 MaxBra= 2 Meth= 1.
 IRaf=       0 NMat=  24 IRICut=      30 DoRegI=T DoRafI=T ISym2E= 2 JSym2E=2.
 CalDSu exits because no D1Ps are significant.
          There are    12 degrees of freedom in the 1st order CPHF.  IDoFFX=0.
 LinEq1:  Iter=  0 NonCon=    12 RMS=5.72D-02 Max=1.50D+00
 AX will form    12 AO Fock derivatives at one time.
 LinEq1:  Iter=  1 NonCon=    12 RMS=1.65D-02 Max=8.12D-01
 LinEq1:  Iter=  2 NonCon=    12 RMS=1.29D-02 Max=7.20D-01
 LinEq1:  Iter=  3 NonCon=    12 RMS=6.70D-03 Max=1.72D-01
 LinEq1:  Iter=  4 NonCon=    12 RMS=4.34D-03 Max=7.33D-02
 LinEq1:  Iter=  5 NonCon=    12 RMS=1.73D-03 Max=5.08D-02
 LinEq1:  Iter=  6 NonCon=    12 RMS=8.85D-04 Max=1.57D-02
 LinEq1:  Iter=  7 NonCon=    12 RMS=3.28D-04 Max=5.83D-03
 LinEq1:  Iter=  8 NonCon=    12 RMS=1.45D-04 Max=2.87D-03
 LinEq1:  Iter=  9 NonCon=    12 RMS=5.24D-05 Max=8.28D-04
 LinEq1:  Iter= 10 NonCon=    12 RMS=2.19D-05 Max=3.00D-04
 LinEq1:  Iter= 11 NonCon=    12 RMS=8.34D-06 Max=1.64D-04
 LinEq1:  Iter= 12 NonCon=    12 RMS=3.89D-06 Max=5.40D-05
 LinEq1:  Iter= 13 NonCon=    12 RMS=1.41D-06 Max=2.54D-05
 LinEq1:  Iter= 14 NonCon=    12 RMS=4.54D-07 Max=8.45D-06
 LinEq1:  Iter= 15 NonCon=    12 RMS=1.21D-07 Max=2.36D-06
 LinEq1:  Iter= 16 NonCon=    12 RMS=3.77D-08 Max=7.27D-07
 LinEq1:  Iter= 17 NonCon=    12 RMS=1.09D-08 Max=3.56D-07
 LinEq1:  Iter= 18 NonCon=    12 RMS=2.49D-09 Max=5.91D-08
 LinEq1:  Iter= 19 NonCon=    12 RMS=7.21D-10 Max=1.49D-08
 LinEq1:  Iter= 20 NonCon=    12 RMS=1.97D-10 Max=3.45D-09
 LinEq1:  Iter= 21 NonCon=     8 RMS=5.02D-11 Max=9.22D-10
 LinEq1:  Iter= 22 NonCon=     3 RMS=1.40D-11 Max=2.48D-10
 LinEq1:  Iter= 23 NonCon=     0 RMS=5.30D-12 Max=6.89D-11
 Linear equations converged to 1.000D-11 1.000D-10 after    23 iterations.
 FullF1:  Do perturbations    1 to    12.
 Dipole-magnetic dipole polarizability for W=    0.071980:
                 1             2             3 
      1   0.505931D+01 -0.927448D+00 -0.725851D+01
      2  -0.876531D+01 -0.505130D+01 -0.196339D+02
      3   0.249320D+02  0.925052D+01  0.151289D+01
 w=    0.071980 a.u., Optical Rotation Beta=     -0.5070 au.
 Molar Mass =     90.5523 grams/mole, [Alpha] ( 6330.0 A) =     -187.55 deg.
 Dipole-magnetic dipole polarizability for W=    0.077357:
                 1             2             3 
      1   0.513471D+01 -0.913525D+00 -0.724551D+01
      2  -0.890688D+01 -0.509900D+01 -0.197117D+02
      3   0.251527D+02  0.933731D+01  0.153891D+01
 w=    0.077357 a.u., Optical Rotation Beta=     -0.5249 au.
 Molar Mass =     90.5523 grams/mole, [Alpha] ( 5890.0 A) =     -224.27 deg.
 Dipole-magnetic dipole polarizability for W=    0.104503:
                 1             2             3 
      1   0.566003D+01 -0.808484D+00 -0.714771D+01
      2  -0.987059D+01 -0.541245D+01 -0.202150D+02
      3   0.266873D+02  0.994109D+01  0.172185D+01
 w=    0.104503 a.u., Optical Rotation Beta=     -0.6565 au.
 Molar Mass =     90.5523 grams/mole, [Alpha] ( 4360.0 A) =     -511.91 deg.
 Dipole-magnetic dipole polarizability for W=    0.128347:
                 1             2             3 
      1   0.641871D+01 -0.636718D+00 -0.699197D+01
      2  -0.111895D+02 -0.581192D+01 -0.208415D+02
      3   0.289022D+02  0.108103D+02  0.199024D+01
 w=    0.128347 a.u., Optical Rotation Beta=     -0.8657 au.
 Molar Mass =     90.5523 grams/mole, [Alpha] ( 3550.0 A) =    -1018.23 deg.
 End of Minotr Frequency-dependent properties on file   721 Mask=       2 NFrqRd=     4 NDeriv=     1 LenFil=      42:
 Frequencies=    0.071980    0.077357    0.104503    0.128347
 Property number 2 -- FD Optical Rotation Tensor frequency  1    0.071980:
                 1             2             3 
      1   0.505931D+01 -0.927448D+00 -0.725851D+01
      2  -0.876531D+01 -0.505130D+01 -0.196339D+02
      3   0.249320D+02  0.925052D+01  0.151289D+01
 Property number 2 -- FD Optical Rotation Tensor frequency  2    0.077357:
                 1             2             3 
      1   0.513471D+01 -0.913525D+00 -0.724551D+01
      2  -0.890688D+01 -0.509900D+01 -0.197117D+02
      3   0.251527D+02  0.933731D+01  0.153891D+01
 Property number 2 -- FD Optical Rotation Tensor frequency  3    0.104503:
                 1             2             3 
      1   0.566003D+01 -0.808484D+00 -0.714771D+01
      2  -0.987059D+01 -0.541245D+01 -0.202150D+02
      3   0.266873D+02  0.994109D+01  0.172185D+01
 Property number 2 -- FD Optical Rotation Tensor frequency  4    0.128347:
                 1             2             3 
      1   0.641871D+01 -0.636718D+00 -0.699197D+01
      2  -0.111895D+02 -0.581192D+01 -0.208415D+02
      3   0.289022D+02  0.108103D+02  0.199024D+01
 End of Minotr Frequency-dependent properties file   722 does not exist.
 Leave Link 1002 at Wed Jul 10 17:18:40 2013, MaxMem=  131072000 cpu:    1455.2
 (Enter /cerebro/home/software/apps/g09/l601.exe)
 Copying SCF densities to generalized density rwf, IOpCl= 0 IROHF=0.

 **********************************************************************

            Population analysis using the SCF density.

 **********************************************************************

 Orbital symmetries:
       Occupied  (A) (A) (A) (A) (A) (A) (A) (A) (A) (A) (A) (A)
                 (A) (A) (A) (A) (A) (A) (A) (A) (A) (A) (A) (A)
       Virtual   (A) (A) (A) (A) (A) (A) (A) (A) (A) (A) (A) (A)
                 (A) (A) (A) (A) (A) (A) (A) (A) (A) (A) (A) (A)
                 (A) (A) (A) (A) (A) (A) (A) (A) (A) (A) (A) (A)
                 (A) (A) (A) (A) (A) (A) (A) (A) (A) (A) (A) (A)
                 (A) (A) (A) (A) (A) (A) (A) (A) (A) (A) (A) (A)
                 (A) (A) (A) (A) (A) (A) (A) (A) (A) (A) (A) (A)
                 (A) (A) (A) (A) (A) (A) (A) (A) (A) (A) (A) (A)
                 (A) (A) (A) (A) (A) (A) (A) (A) (A) (A) (A) (A)
                 (A) (A) (A) (A) (A) (A) (A) (A) (A) (A) (A) (A)
                 (A) (A) (A) (A) (A) (A) (A) (A) (A) (A) (A) (A)
                 (A) (A) (A) (A) (A) (A) (A) (A) (A) (A) (A) (A)
                 (A) (A) (A) (A) (A) (A) (A) (A) (A) (A) (A)
 The electronic state is 1-A.
 Alpha  occ. eigenvalues -- -101.53379 -10.24801 -10.19613 -10.18575 -10.18129
 Alpha  occ. eigenvalues --   -9.44824  -7.21258  -7.20316  -7.20299  -0.86825
 Alpha  occ. eigenvalues --   -0.78623  -0.74134  -0.64157  -0.58009  -0.48780
 Alpha  occ. eigenvalues --   -0.47714  -0.44366  -0.41607  -0.40148  -0.37415
 Alpha  occ. eigenvalues --   -0.36661  -0.30644  -0.29800  -0.27975
 Alpha virt. eigenvalues --   -0.03492  -0.00766   0.00574   0.00751   0.02153
 Alpha virt. eigenvalues --    0.02853   0.03829   0.04104   0.06329   0.06481
 Alpha virt. eigenvalues --    0.07258   0.08414   0.08921   0.09858   0.11071
 Alpha virt. eigenvalues --    0.11554   0.11865   0.12203   0.12932   0.12990
 Alpha virt. eigenvalues --    0.13452   0.14167   0.14969   0.15600   0.15996
 Alpha virt. eigenvalues --    0.16545   0.17051   0.18977   0.19181   0.21327
 Alpha virt. eigenvalues --    0.21955   0.22500   0.25179   0.26016   0.27247
 Alpha virt. eigenvalues --    0.29191   0.34124   0.35719   0.38663   0.42720
 Alpha virt. eigenvalues --    0.42988   0.44580   0.46067   0.47447   0.48803
 Alpha virt. eigenvalues --    0.49627   0.52512   0.53218   0.56769   0.58922
 Alpha virt. eigenvalues --    0.59785   0.62221   0.63496   0.64887   0.65533
 Alpha virt. eigenvalues --    0.66363   0.68637   0.70637   0.73234   0.73799
 Alpha virt. eigenvalues --    0.78304   0.81636   0.82902   0.86104   0.89209
 Alpha virt. eigenvalues --    0.90143   0.94166   0.96119   1.00530   1.02952
 Alpha virt. eigenvalues --    1.07092   1.08198   1.12313   1.16962   1.19876
 Alpha virt. eigenvalues --    1.29339   1.39301   1.44805   1.45238   1.47660
 Alpha virt. eigenvalues --    1.50141   1.56362   1.56841   1.58397   1.58881
 Alpha virt. eigenvalues --    1.62447   1.65456   1.69311   1.70132   1.72639
 Alpha virt. eigenvalues --    1.77036   1.78693   1.86092   1.87483   1.93589
 Alpha virt. eigenvalues --    1.98942   2.02065   2.06714   2.12817   2.18570
 Alpha virt. eigenvalues --    2.19623   2.21630   2.28137   2.30244   2.30463
 Alpha virt. eigenvalues --    2.34885   2.37877   2.44278   2.46066   2.48430
 Alpha virt. eigenvalues --    2.52137   2.56104   2.57541   2.59578   2.60802
 Alpha virt. eigenvalues --    2.64019   2.72888   2.73588   2.74722   2.77535
 Alpha virt. eigenvalues --    2.85068   2.86659   2.93060   3.07997   3.09827
 Alpha virt. eigenvalues --    3.18660   3.39167   3.50314   3.70241   3.77621
 Alpha virt. eigenvalues --    3.81260   3.94649   4.11078   4.29453   9.75562
 Alpha virt. eigenvalues --   23.72108  23.80704  23.94527  24.24040  25.93176
 Alpha virt. eigenvalues --   25.97299  26.44649 215.74550
          Condensed to atoms (all electrons):
              1          2          3          4          5          6
     1  C    5.414624   0.129342   0.003777   0.109105  -0.003918   0.375655
     2  C    0.129342   5.437601   0.024236  -0.129314  -0.024073  -0.044992
     3  C    0.003777   0.024236   5.299343   0.438754  -0.044871   0.020234
     4  C    0.109105  -0.129314   0.438754   5.387485   0.393905  -0.011911
     5  H   -0.003918  -0.024073  -0.044871   0.393905   0.571115   0.000956
     6  H    0.375655  -0.044992   0.020234  -0.011911   0.000956   0.544852
     7  H    0.002600   0.023698  -0.007526   0.380708  -0.048645   0.000141
     8  H   -0.018118  -0.016755   0.342212  -0.035451   0.014264  -0.001441
     9  H   -0.047485   0.479503  -0.140070   0.013397   0.009418  -0.004209
    10  H    0.396354  -0.014656  -0.046515  -0.000631   0.002117  -0.016593
    11  H    0.367885  -0.054543   0.023476   0.004045  -0.000435  -0.027743
    12  Cl  -0.047027   0.011961   0.013304   0.065864   0.000102   0.012318
              7          8          9         10         11         12
     1  C    0.002600  -0.018118  -0.047485   0.396354   0.367885  -0.047027
     2  C    0.023698  -0.016755   0.479503  -0.014656  -0.054543   0.011961
     3  C   -0.007526   0.342212  -0.140070  -0.046515   0.023476   0.013304
     4  C    0.380708  -0.035451   0.013397  -0.000631   0.004045   0.065864
     5  H   -0.048645   0.014264   0.009418   0.002117  -0.000435   0.000102
     6  H    0.000141  -0.001441  -0.004209  -0.016593  -0.027743   0.012318
     7  H    0.537320  -0.017484  -0.002181  -0.000893  -0.000135  -0.003425
     8  H   -0.017484   0.540390   0.005102   0.003740  -0.002086   0.017645
     9  H   -0.002181   0.005102   0.508206   0.007796  -0.012542  -0.047053
    10  H   -0.000893   0.003740   0.007796   0.540685  -0.037572   0.008583
    11  H   -0.000135  -0.002086  -0.012542  -0.037572   0.583928   0.019416
    12  Cl  -0.003425   0.017645  -0.047053   0.008583   0.019416  17.011821
 Mulliken atomic charges:
              1
     1  C   -0.682793
     2  C    0.177992
     3  C    0.073645
     4  C   -0.615956
     5  H    0.130066
     6  H    0.152733
     7  H    0.135823
     8  H    0.167983
     9  H    0.230120
    10  H    0.157586
    11  H    0.136308
    12  Cl  -0.063507
 Sum of Mulliken atomic charges =   0.00000
 Mulliken charges with hydrogens summed into heavy atoms:
              1
     1  C   -0.236166
     2  C    0.408112
     3  C    0.241628
     4  C   -0.350067
    12  Cl  -0.063507
 Sum of Mulliken charges with hydrogens summed into heavy atoms =   0.00000
 Electronic spatial extent (au):  <R**2>=            629.8013
 Charge=              0.0000 electrons
 Dipole moment (field-independent basis, Debye):
    X=             -1.7485    Y=              1.5638    Z=             -0.3484  Tot=              2.3715
 Quadrupole moment (field-independent basis, Debye-Ang):
   XX=            -39.1125   YY=            -40.0615   ZZ=            -37.2251
   XY=              2.4538   XZ=              0.1166   YZ=             -0.1323
 Traceless Quadrupole moment (field-independent basis, Debye-Ang):
   XX=             -0.3128   YY=             -1.2618   ZZ=              1.5746
   XY=              2.4538   XZ=              0.1166   YZ=             -0.1323
 Octapole moment (field-independent basis, Debye-Ang**2):
  XXX=             -3.3578  YYY=              1.4967  ZZZ=             -0.3691  XYY=              4.2914
  XXY=             -5.1523  XXZ=             -0.5191  XZZ=             -0.6728  YZZ=             -0.2682
  YYZ=             -0.1542  XYZ=             -0.6284
 Hexadecapole moment (field-independent basis, Debye-Ang**3):
 XXXX=           -484.0452 YYYY=           -278.0979 ZZZZ=            -80.8316 XXXY=             11.4234
 XXXZ=              0.3634 YYYX=             -8.2428 YYYZ=             -1.4536 ZZZX=              0.6268
 ZZZY=              1.1292 XXYY=           -129.5544 XXZZ=            -96.7769 YYZZ=            -61.5594
 XXYZ=             -2.4455 YYXZ=              0.9272 ZZXY=              1.5329
 N-N= 2.116106293413D+02 E-N=-1.879935899734D+03  KE= 6.149994228384D+02
 No NMR shielding tensors so no spin-rotation constants.
 Leave Link  601 at Wed Jul 10 17:18:40 2013, MaxMem=  131072000 cpu:       0.2
 (Enter /cerebro/home/software/apps/g09/l9999.exe)
 AllDun Frequency-dependent properties on file 20721 Mask=       2 NFrqRd=     4 NDeriv=     1 LenFil=      42:
 Frequencies=    0.071980    0.077357    0.104503    0.128347
 Property number 2 -- FD Optical Rotation Tensor frequency  1    0.071980:
                 1             2             3 
      1   0.505644D+01 -0.905812D+00 -0.721570D+01
      2  -0.876418D+01 -0.505244D+01 -0.196715D+02
      3   0.249021D+02  0.928826D+01  0.151691D+01
 Property number 2 -- FD Optical Rotation Tensor frequency  2    0.077357:
                 1             2             3 
      1   0.513180D+01 -0.891772D+00 -0.720246D+01
      2  -0.890578D+01 -0.510042D+01 -0.197496D+02
      3   0.251223D+02  0.937538D+01  0.154323D+01
 Property number 2 -- FD Optical Rotation Tensor frequency  3    0.104503:
                 1             2             3 
      1   0.565678D+01 -0.785974D+00 -0.710301D+01
      2  -0.986989D+01 -0.541579D+01 -0.202548D+02
      3   0.266545D+02  0.998152D+01  0.172843D+01
 Property number 2 -- FD Optical Rotation Tensor frequency  4    0.128347:
                 1             2             3 
      1   0.641477D+01 -0.613242D+00 -0.694506D+01
      2  -0.111896D+02 -0.581803D+01 -0.208839D+02
      3   0.288659D+02  0.108542D+02  0.200028D+01
 1\1\GINC-COMPUTE-0-120\SP\RB3LYP\6-311++G(d,p)\C4H7Cl1\CRAWDAD\10-Jul-
 2013\0\\#P B3LYP/6-311++G** scf(conver=11) int=ultrafine polar=optrot 
 cphf(rdfreq,conver=11)\\(R)-3-chloro-1-butene tau=120\\0,1\C,0,0.47026
 093,1.7542336,0.03828923\C,0,0.00092171,0.34659431,-0.32392935\C,0,-1.
 19499378,-0.09274967,0.42776366\C,0,-2.32949142,-0.49677166,-0.1524276
 8\H,0,-2.48802319,-0.57232379,-1.22755096\H,0,1.37490158,2.01824347,-0
 .51083995\H,0,-3.23532751,-0.8036437,0.36645114\H,0,-1.15616281,-0.071
 64646,1.51508091\H,0,-0.1353796,0.27015631,-1.40187911\H,0,0.6614124,1
 .83959896,1.1106458\H,0,-0.32221674,2.4722993,-0.1964392\Cl,0,1.385962
 16,-0.83727068,0.0228375\\Version=EM64L-G09RevA.02\State=1-A\HF=-616.8
 93753\RMSD=7.142e-12\Dipole=-0.6889772,0.6141027,-0.1368661\Quadrupole
 =-0.2401977,-0.9303587,1.1705564,1.8257527,0.088378,-0.0996368\PG=C01 
 [X(C4H7Cl1)]\\@


 THERE'S NOTHING SO GREAT AS THE GREAT OUTDOORS.

                                       -- ZIGGY
 Job cpu time:  0 days  0 hours 28 minutes 31.5 seconds.
 File lengths (MBytes):  RWF=    119 Int=      0 D2E=      0 Chk=      2 Scr=      1
 Normal termination of Gaussian 09 at Wed Jul 10 17:18:41 2013.
