(R)-3-chloro-1-butene tau=120                                           
SP        RB3LYP                                                      6-311++G(d,p)       
Number of atoms                            I               12
Info1-9                                    I   N=           9
          26          26           0           0           0         110
           1          18        -502
Full Title                                 C   N=           3
(R)-3-chloro-1-butene tau=120       
Route                                      C   N=           7
#P B3LYP/6-311++G** scf(conver=11) int=ultrafine polar=optro
t cphf(rdfreq,conver=11)
Charge                                     I                0
Multiplicity                               I                1
Number of electrons                        I               48
Number of alpha electrons                  I               24
Number of beta electrons                   I               24
Number of basis functions                  I              167
Number of independent functions            I              167
Number of point charges in /Mol/           I                0
Number of translation vectors              I                0
Atomic numbers                             I   N=          12
           6           6           6           6           1           1
           1           1           1           1           1          17
Nuclear charges                            R   N=          12
  6.00000000E+00  6.00000000E+00  6.00000000E+00  6.00000000E+00  1.00000000E+00
  1.00000000E+00  1.00000000E+00  1.00000000E+00  1.00000000E+00  1.00000000E+00
  1.00000000E+00  1.70000000E+01
Current cartesian coordinates              R   N=          36
  8.97820328E-01  3.31384285E+00  6.60148127E-02  4.62498577E-03  6.54382345E-01
 -6.12598581E-01 -2.25519361E+00 -1.68727541E-01  8.12251448E-01 -4.40202736E+00
 -9.29812358E-01 -2.80056074E-01 -4.70449186E+00 -1.07559818E+00 -2.31110343E+00
  2.60702673E+00  3.80742195E+00 -9.74753618E-01 -6.11373027E+00 -1.50448626E+00
  7.03695104E-01 -2.17910970E+00 -1.25333975E-01  2.86681370E+00 -2.55840370E-01
  5.06827559E-01 -2.64903769E+00  1.26195793E+00  3.47803829E+00  2.09172227E+00
 -5.97552051E-01  4.67303884E+00 -3.78073040E-01  2.61825844E+00 -1.58694235E+00
  4.33568859E-02
Number of symbols in /Mol/                 I                0
Force Field                                I                0
Atom Types                                 C   N=          12
                                                            
                                                            
                        
Int Atom Types                             I   N=          12
           0           0           0           0           0           0
           0           0           0           0           0           0
MM charges                                 R   N=          12
  0.00000000E+00  0.00000000E+00  0.00000000E+00  0.00000000E+00  0.00000000E+00
  0.00000000E+00  0.00000000E+00  0.00000000E+00  0.00000000E+00  0.00000000E+00
  0.00000000E+00  0.00000000E+00
Integer atomic weights                     I   N=          12
          12          12          12          12           1           1
           1           1           1           1           1          35
Real atomic weights                        R   N=          12
  1.20000000E+01  1.20000000E+01  1.20000000E+01  1.20000000E+01  1.00782504E+00
  1.00782504E+00  1.00782504E+00  1.00782504E+00  1.00782504E+00  1.00782504E+00
  1.00782504E+00  3.49688527E+01
Atom fragment info                         I   N=          12
           0           0           0           0           0           0
           0           0           0           0           0           0
Atom residue num                           I   N=          12
           0           0           0           0           0           0
           0           0           0           0           0           0
Nuclear spins                              I   N=          12
           0           0           0           0           1           1
           1           1           1           1           1           3
Nuclear ZEff                               R   N=          12
 -3.60000000E+00 -3.60000000E+00 -3.60000000E+00 -3.60000000E+00 -1.00000000E+00
 -1.00000000E+00 -1.00000000E+00 -1.00000000E+00 -1.00000000E+00 -1.00000000E+00
 -1.00000000E+00 -1.42400000E+01
Nuclear ZNuc                               R   N=          12
  6.00000000E+00  6.00000000E+00  6.00000000E+00  6.00000000E+00  1.00000000E+00
  1.00000000E+00  1.00000000E+00  1.00000000E+00  1.00000000E+00  1.00000000E+00
  1.00000000E+00  1.70000000E+01
Nuclear QMom                               R   N=          12
  0.00000000E+00  0.00000000E+00  0.00000000E+00  0.00000000E+00  0.00000000E+00
  0.00000000E+00  0.00000000E+00  0.00000000E+00  0.00000000E+00  0.00000000E+00
  0.00000000E+00 -8.16500000E+00
Nuclear GFac                               R   N=          12
  0.00000000E+00  0.00000000E+00  0.00000000E+00  0.00000000E+00  2.79284600E+00
  2.79284600E+00  2.79284600E+00  2.79284600E+00  2.79284600E+00  2.79284600E+00
  2.79284600E+00  8.21874000E-01
MicOpt                                     I   N=          12
          -1          -1          -1          -1          -1          -1
          -1          -1          -1          -1          -1          -1
Number of residues                         I                0
Number of secondary structures             I                0
SymInf integers                            I   N=          26
           1           1           1           1           1           0
           0           0           0           0           0           0
           0           0           0           0           0           0
           0           0           0           0           0           0
           0           0
RotTr to input orientation                 R   N=          12
  9.99997123E-01  2.03056989E-03  1.27668217E-03 -2.03284465E-03  9.99996344E-01
  1.78300375E-03 -1.27305699E-03 -1.78559392E-03  9.99997595E-01 -2.33280825E-03
 -5.14871239E-04 -7.13320829E-04
Number of contracted shells                I               72
Number of primitive shells                 I              126
Pure/Cartesian d shells                    I                0
Pure/Cartesian f shells                    I                0
Highest angular momentum                   I                2
Largest degree of contraction              I                6
Shell types                                I   N=          72
           0          -1          -1          -1          -1          -2
           0          -1          -1          -1          -1          -2
           0          -1          -1          -1          -1          -2
           0          -1          -1          -1          -1          -2
           0           0           0           0           1           0
           0           0           0           1           0           0
           0           0           1           0           0           0
           0           1           0           0           0           0
           1           0           0           0           0           1
           0           0           0           0           1           0
           0           0           0           0           0          -1
           1           1           1           1           1          -2
Number of primitives per shell             I   N=          72
           6           3           1           1           1           1
           6           3           1           1           1           1
           6           3           1           1           1           1
           6           3           1           1           1           1
           3           1           1           1           1           3
           1           1           1           1           3           1
           1           1           1           3           1           1
           1           1           3           1           1           1
           1           3           1           1           1           1
           3           1           1           1           1           6
           3           1           1           1           1           1
           5           2           1           1           1           1
Shell to atom map                          I   N=          72
           1           1           1           1           1           1
           2           2           2           2           2           2
           3           3           3           3           3           3
           4           4           4           4           4           4
           5           5           5           5           5           6
           6           6           6           6           7           7
           7           7           7           8           8           8
           8           8           9           9           9           9
           9          10          10          10          10          10
          11          11          11          11          11          12
          12          12          12          12          12          12
          12          12          12          12          12          12
Primitive exponents                        R   N=         126
  4.56324000E+03  6.82024000E+02  1.54973000E+02  4.44553000E+01  1.30290000E+01
  1.82773000E+00  2.09642000E+01  4.80331000E+00  1.45933000E+00  4.83456000E-01
  1.45585000E-01  4.38000000E-02  6.26000000E-01  4.56324000E+03  6.82024000E+02
  1.54973000E+02  4.44553000E+01  1.30290000E+01  1.82773000E+00  2.09642000E+01
  4.80331000E+00  1.45933000E+00  4.83456000E-01  1.45585000E-01  4.38000000E-02
  6.26000000E-01  4.56324000E+03  6.82024000E+02  1.54973000E+02  4.44553000E+01
  1.30290000E+01  1.82773000E+00  2.09642000E+01  4.80331000E+00  1.45933000E+00
  4.83456000E-01  1.45585000E-01  4.38000000E-02  6.26000000E-01  4.56324000E+03
  6.82024000E+02  1.54973000E+02  4.44553000E+01  1.30290000E+01  1.82773000E+00
  2.09642000E+01  4.80331000E+00  1.45933000E+00  4.83456000E-01  1.45585000E-01
  4.38000000E-02  6.26000000E-01  3.38650000E+01  5.09479000E+00  1.15879000E+00
  3.25840000E-01  1.02741000E-01  3.60000000E-02  7.50000000E-01  3.38650000E+01
  5.09479000E+00  1.15879000E+00  3.25840000E-01  1.02741000E-01  3.60000000E-02
  7.50000000E-01  3.38650000E+01  5.09479000E+00  1.15879000E+00  3.25840000E-01
  1.02741000E-01  3.60000000E-02  7.50000000E-01  3.38650000E+01  5.09479000E+00
  1.15879000E+00  3.25840000E-01  1.02741000E-01  3.60000000E-02  7.50000000E-01
  3.38650000E+01  5.09479000E+00  1.15879000E+00  3.25840000E-01  1.02741000E-01
  3.60000000E-02  7.50000000E-01  3.38650000E+01  5.09479000E+00  1.15879000E+00
  3.25840000E-01  1.02741000E-01  3.60000000E-02  7.50000000E-01  3.38650000E+01
  5.09479000E+00  1.15879000E+00  3.25840000E-01  1.02741000E-01  3.60000000E-02
  7.50000000E-01  1.05819000E+05  1.58720000E+04  3.61965000E+03  1.03080000E+03
  3.39908000E+02  1.24538000E+02  1.24538000E+02  4.95135000E+01  2.08056000E+01
  6.58346000E+00  2.56468000E+00  5.59763000E-01  1.83273000E-01  4.83000000E-02
  5.89776000E+02  1.39849000E+02  4.51413000E+01  1.68733000E+01  2.77152000E+00
  6.74110000E+00  2.77152000E+00  1.02387000E+00  3.81368000E-01  1.09437000E-01
  7.50000000E-01
Contraction coefficients                   R   N=         126
  1.96665025E-03  1.52306019E-02  7.61269097E-02  2.60801033E-01  6.16462078E-01
  2.21006028E-01  1.14660081E-01  9.19999648E-01 -3.03068213E-03  1.00000000E+00
  1.00000000E+00  1.00000000E+00  1.00000000E+00  1.96665025E-03  1.52306019E-02
  7.61269097E-02  2.60801033E-01  6.16462078E-01  2.21006028E-01  1.14660081E-01
  9.19999648E-01 -3.03068213E-03  1.00000000E+00  1.00000000E+00  1.00000000E+00
  1.00000000E+00  1.96665025E-03  1.52306019E-02  7.61269097E-02  2.60801033E-01
  6.16462078E-01  2.21006028E-01  1.14660081E-01  9.19999648E-01 -3.03068213E-03
  1.00000000E+00  1.00000000E+00  1.00000000E+00  1.00000000E+00  1.96665025E-03
  1.52306019E-02  7.61269097E-02  2.60801033E-01  6.16462078E-01  2.21006028E-01
  1.14660081E-01  9.19999648E-01 -3.03068213E-03  1.00000000E+00  1.00000000E+00
  1.00000000E+00  1.00000000E+00  2.54938145E-02  1.90373109E-01  8.52161486E-01
  1.00000000E+00  1.00000000E+00  1.00000000E+00  1.00000000E+00  2.54938145E-02
  1.90373109E-01  8.52161486E-01  1.00000000E+00  1.00000000E+00  1.00000000E+00
  1.00000000E+00  2.54938145E-02  1.90373109E-01  8.52161486E-01  1.00000000E+00
  1.00000000E+00  1.00000000E+00  1.00000000E+00  2.54938145E-02  1.90373109E-01
  8.52161486E-01  1.00000000E+00  1.00000000E+00  1.00000000E+00  1.00000000E+00
  2.54938145E-02  1.90373109E-01  8.52161486E-01  1.00000000E+00  1.00000000E+00
  1.00000000E+00  1.00000000E+00  2.54938145E-02  1.90373109E-01  8.52161486E-01
  1.00000000E+00  1.00000000E+00  1.00000000E+00  1.00000000E+00  2.54938145E-02
  1.90373109E-01  8.52161486E-01  1.00000000E+00  1.00000000E+00  1.00000000E+00
  1.00000000E+00  7.38000247E-04  5.71800191E-03  2.94950099E-02  1.17286039E-01
  3.62949121E-01  5.84149195E-01  1.34176973E-01  6.24249876E-01  2.91755942E-01
  1.00000000E+00  1.00000000E+00  1.00000000E+00  1.00000000E+00  1.00000000E+00
  3.66556935E-03  2.83679194E-02  1.24756603E-01  3.39654631E-01  7.47585963E-01
 -1.57224381E+00  9.92388882E-01  1.00000000E+00  1.00000000E+00  1.00000000E+00
  1.00000000E+00
P(S=P) Contraction coefficients            R   N=         126
  0.00000000E+00  0.00000000E+00  0.00000000E+00  0.00000000E+00  0.00000000E+00
  0.00000000E+00  4.02486927E-02  2.37593957E-01  8.15853851E-01  1.00000000E+00
  1.00000000E+00  1.00000000E+00  0.00000000E+00  0.00000000E+00  0.00000000E+00
  0.00000000E+00  0.00000000E+00  0.00000000E+00  0.00000000E+00  4.02486927E-02
  2.37593957E-01  8.15853851E-01  1.00000000E+00  1.00000000E+00  1.00000000E+00
  0.00000000E+00  0.00000000E+00  0.00000000E+00  0.00000000E+00  0.00000000E+00
  0.00000000E+00  0.00000000E+00  4.02486927E-02  2.37593957E-01  8.15853851E-01
  1.00000000E+00  1.00000000E+00  1.00000000E+00  0.00000000E+00  0.00000000E+00
  0.00000000E+00  0.00000000E+00  0.00000000E+00  0.00000000E+00  0.00000000E+00
  4.02486927E-02  2.37593957E-01  8.15853851E-01  1.00000000E+00  1.00000000E+00
  1.00000000E+00  0.00000000E+00  0.00000000E+00  0.00000000E+00  0.00000000E+00
  0.00000000E+00  0.00000000E+00  0.00000000E+00  0.00000000E+00  0.00000000E+00
  0.00000000E+00  0.00000000E+00  0.00000000E+00  0.00000000E+00  0.00000000E+00
  0.00000000E+00  0.00000000E+00  0.00000000E+00  0.00000000E+00  0.00000000E+00
  0.00000000E+00  0.00000000E+00  0.00000000E+00  0.00000000E+00  0.00000000E+00
  0.00000000E+00  0.00000000E+00  0.00000000E+00  0.00000000E+00  0.00000000E+00
  0.00000000E+00  0.00000000E+00  0.00000000E+00  0.00000000E+00  0.00000000E+00
  0.00000000E+00  0.00000000E+00  0.00000000E+00  0.00000000E+00  0.00000000E+00
  0.00000000E+00  0.00000000E+00  0.00000000E+00  0.00000000E+00  0.00000000E+00
  0.00000000E+00  0.00000000E+00  0.00000000E+00  0.00000000E+00  0.00000000E+00
  0.00000000E+00  0.00000000E+00  0.00000000E+00  0.00000000E+00  0.00000000E+00
  0.00000000E+00  0.00000000E+00  0.00000000E+00  0.00000000E+00  0.00000000E+00
  0.00000000E+00  0.00000000E+00  0.00000000E+00  0.00000000E+00  1.00000000E+00
  0.00000000E+00  0.00000000E+00  0.00000000E+00  0.00000000E+00  0.00000000E+00
  0.00000000E+00  0.00000000E+00  0.00000000E+00  0.00000000E+00  0.00000000E+00
  0.00000000E+00
Coordinates of each shell                  R   N=         216
  8.97820328E-01  3.31384285E+00  6.60148127E-02  8.97820328E-01  3.31384285E+00
  6.60148127E-02  8.97820328E-01  3.31384285E+00  6.60148127E-02  8.97820328E-01
  3.31384285E+00  6.60148127E-02  8.97820328E-01  3.31384285E+00  6.60148127E-02
  8.97820328E-01  3.31384285E+00  6.60148127E-02  4.62498577E-03  6.54382345E-01
 -6.12598581E-01  4.62498577E-03  6.54382345E-01 -6.12598581E-01  4.62498577E-03
  6.54382345E-01 -6.12598581E-01  4.62498577E-03  6.54382345E-01 -6.12598581E-01
  4.62498577E-03  6.54382345E-01 -6.12598581E-01  4.62498577E-03  6.54382345E-01
 -6.12598581E-01 -2.25519361E+00 -1.68727541E-01  8.12251448E-01 -2.25519361E+00
 -1.68727541E-01  8.12251448E-01 -2.25519361E+00 -1.68727541E-01  8.12251448E-01
 -2.25519361E+00 -1.68727541E-01  8.12251448E-01 -2.25519361E+00 -1.68727541E-01
  8.12251448E-01 -2.25519361E+00 -1.68727541E-01  8.12251448E-01 -4.40202736E+00
 -9.29812358E-01 -2.80056074E-01 -4.40202736E+00 -9.29812358E-01 -2.80056074E-01
 -4.40202736E+00 -9.29812358E-01 -2.80056074E-01 -4.40202736E+00 -9.29812358E-01
 -2.80056074E-01 -4.40202736E+00 -9.29812358E-01 -2.80056074E-01 -4.40202736E+00
 -9.29812358E-01 -2.80056074E-01 -4.70449186E+00 -1.07559818E+00 -2.31110343E+00
 -4.70449186E+00 -1.07559818E+00 -2.31110343E+00 -4.70449186E+00 -1.07559818E+00
 -2.31110343E+00 -4.70449186E+00 -1.07559818E+00 -2.31110343E+00 -4.70449186E+00
 -1.07559818E+00 -2.31110343E+00  2.60702673E+00  3.80742195E+00 -9.74753618E-01
  2.60702673E+00  3.80742195E+00 -9.74753618E-01  2.60702673E+00  3.80742195E+00
 -9.74753618E-01  2.60702673E+00  3.80742195E+00 -9.74753618E-01  2.60702673E+00
  3.80742195E+00 -9.74753618E-01 -6.11373027E+00 -1.50448626E+00  7.03695104E-01
 -6.11373027E+00 -1.50448626E+00  7.03695104E-01 -6.11373027E+00 -1.50448626E+00
  7.03695104E-01 -6.11373027E+00 -1.50448626E+00  7.03695104E-01 -6.11373027E+00
 -1.50448626E+00  7.03695104E-01 -2.17910970E+00 -1.25333975E-01  2.86681370E+00
 -2.17910970E+00 -1.25333975E-01  2.86681370E+00 -2.17910970E+00 -1.25333975E-01
  2.86681370E+00 -2.17910970E+00 -1.25333975E-01  2.86681370E+00 -2.17910970E+00
 -1.25333975E-01  2.86681370E+00 -2.55840370E-01  5.06827559E-01 -2.64903769E+00
 -2.55840370E-01  5.06827559E-01 -2.64903769E+00 -2.55840370E-01  5.06827559E-01
 -2.64903769E+00 -2.55840370E-01  5.06827559E-01 -2.64903769E+00 -2.55840370E-01
  5.06827559E-01 -2.64903769E+00  1.26195793E+00  3.47803829E+00  2.09172227E+00
  1.26195793E+00  3.47803829E+00  2.09172227E+00  1.26195793E+00  3.47803829E+00
  2.09172227E+00  1.26195793E+00  3.47803829E+00  2.09172227E+00  1.26195793E+00
  3.47803829E+00  2.09172227E+00 -5.97552051E-01  4.67303884E+00 -3.78073040E-01
 -5.97552051E-01  4.67303884E+00 -3.78073040E-01 -5.97552051E-01  4.67303884E+00
 -3.78073040E-01 -5.97552051E-01  4.67303884E+00 -3.78073040E-01 -5.97552051E-01
  4.67303884E+00 -3.78073040E-01  2.61825844E+00 -1.58694235E+00  4.33568859E-02
  2.61825844E+00 -1.58694235E+00  4.33568859E-02  2.61825844E+00 -1.58694235E+00
  4.33568859E-02  2.61825844E+00 -1.58694235E+00  4.33568859E-02  2.61825844E+00
 -1.58694235E+00  4.33568859E-02  2.61825844E+00 -1.58694235E+00  4.33568859E-02
  2.61825844E+00 -1.58694235E+00  4.33568859E-02  2.61825844E+00 -1.58694235E+00
  4.33568859E-02  2.61825844E+00 -1.58694235E+00  4.33568859E-02  2.61825844E+00
 -1.58694235E+00  4.33568859E-02  2.61825844E+00 -1.58694235E+00  4.33568859E-02
  2.61825844E+00 -1.58694235E+00  4.33568859E-02  2.61825844E+00 -1.58694235E+00
  4.33568859E-02
Constraint Structure                       R   N=          36
  8.97820328E-01  3.31384285E+00  6.60148127E-02  4.62498577E-03  6.54382345E-01
 -6.12598581E-01 -2.25519361E+00 -1.68727541E-01  8.12251448E-01 -4.40202736E+00
 -9.29812358E-01 -2.80056074E-01 -4.70449186E+00 -1.07559818E+00 -2.31110343E+00
  2.60702673E+00  3.80742195E+00 -9.74753618E-01 -6.11373027E+00 -1.50448626E+00
  7.03695104E-01 -2.17910970E+00 -1.25333975E-01  2.86681370E+00 -2.55840370E-01
  5.06827559E-01 -2.64903769E+00  1.26195793E+00  3.47803829E+00  2.09172227E+00
 -5.97552051E-01  4.67303884E+00 -3.78073040E-01  2.61825844E+00 -1.58694235E+00
  4.33568859E-02
Num ILSW                                   I              100
ILSW                                       I   N=         100
           0           0           0           0           2           0
           0           0           0           0         402          -1
           5           0           0           0           0           0
           0           0           0           0           0           0
           1           0           0           0           0           0
           0           0      100000           0          -1           0
           0           0           0           0           0           0
           0           0           0           1           0           0
           0           0           1           0           0           0
           0           0           4          41           0           0
           0           0           5           0           0           0
           0           0           0           0           0           0
           0           0           0           0           0           0
           0           0           0           0           0           0
           0           0           0           0           0           0
           0           0           0           0           0           0
           0           0           0           0
Num RLSW                                   I               41
RLSW                                       R   N=          41
  8.00000000E-01  7.20000000E-01  1.00000000E+00  8.10000000E-01  2.00000000E-01
  0.00000000E+00  0.00000000E+00  1.00000000E+00  0.00000000E+00  0.00000000E+00
  0.00000000E+00  0.00000000E+00  1.00000000E+00  0.00000000E+00  0.00000000E+00
  0.00000000E+00  0.00000000E+00  1.00000000E+00  0.00000000E+00  0.00000000E+00
  0.00000000E+00  0.00000000E+00  1.00000000E+00  0.00000000E+00  0.00000000E+00
  0.00000000E+00  0.00000000E+00  1.00000000E+00  0.00000000E+00  0.00000000E+00
  0.00000000E+00  0.00000000E+00  0.00000000E+00  0.00000000E+00  0.00000000E+00
  0.00000000E+00  0.00000000E+00  0.00000000E+00  1.00000000E+00  1.00000000E+00
  0.00000000E+00
MxBond                                     I                4
NBond                                      I   N=          12
           4           4           3           3           1           1
           1           1           1           1           1           1
IBond                                      I   N=          48
           2           6          10          11           1           3
           9          12           2           4           8           0
           3           5           7           0           4           0
           0           0           1           0           0           0
           4           0           0           0           3           0
           0           0           2           0           0           0
           1           0           0           0           1           0
           0           0           2           0           0           0
RBond                                      R   N=          48
  1.00000000E+00  1.00000000E+00  1.00000000E+00  1.00000000E+00  1.00000000E+00
  1.00000000E+00  1.00000000E+00  1.00000000E+00  1.00000000E+00  2.00000000E+00
  1.00000000E+00  0.00000000E+00  2.00000000E+00  1.00000000E+00  1.00000000E+00
  0.00000000E+00  1.00000000E+00  0.00000000E+00  0.00000000E+00  0.00000000E+00
  1.00000000E+00  0.00000000E+00  0.00000000E+00  0.00000000E+00  1.00000000E+00
  0.00000000E+00  0.00000000E+00  0.00000000E+00  1.00000000E+00  0.00000000E+00
  0.00000000E+00  0.00000000E+00  1.00000000E+00  0.00000000E+00  0.00000000E+00
  0.00000000E+00  1.00000000E+00  0.00000000E+00  0.00000000E+00  0.00000000E+00
  1.00000000E+00  0.00000000E+00  0.00000000E+00  0.00000000E+00  1.00000000E+00
  0.00000000E+00  0.00000000E+00  0.00000000E+00
Virial Ratio                               R      2.003080214590088E+00
SCF Energy                                 R     -6.168937530334825E+02
Total Energy                               R     -6.168937530334825E+02
RMS Density                                R      7.141597825261428E-12
Nuclear derivative order                   I                0
External E-field                           R   N=          35
  0.00000000E+00  0.00000000E+00  0.00000000E+00  0.00000000E+00  0.00000000E+00
  0.00000000E+00  0.00000000E+00  0.00000000E+00  0.00000000E+00  0.00000000E+00
  0.00000000E+00  0.00000000E+00  0.00000000E+00  0.00000000E+00  0.00000000E+00
  0.00000000E+00  0.00000000E+00  0.00000000E+00  0.00000000E+00  0.00000000E+00
  0.00000000E+00  0.00000000E+00  0.00000000E+00  0.00000000E+00  0.00000000E+00
  0.00000000E+00  0.00000000E+00  0.00000000E+00  0.00000000E+00  0.00000000E+00
  0.00000000E+00  0.00000000E+00  0.00000000E+00  0.00000000E+00  0.00000000E+00
IOpCl                                      I                0
IROHF                                      I                0
Alpha Orbital Energies                     R   N=         167
 -1.01533794E+02 -1.02480093E+01 -1.01961328E+01 -1.01857539E+01 -1.01812917E+01
 -9.44824259E+00 -7.21258349E+00 -7.20315945E+00 -7.20298978E+00 -8.68246047E-01
 -7.86231890E-01 -7.41343251E-01 -6.41566017E-01 -5.80094025E-01 -4.87804879E-01
 -4.77139058E-01 -4.43658165E-01 -4.16067501E-01 -4.01476496E-01 -3.74145536E-01
 -3.66608142E-01 -3.06437059E-01 -2.97997633E-01 -2.79751139E-01 -3.49163791E-02
 -7.65533181E-03  5.73875390E-03  7.50794202E-03  2.15328916E-02  2.85272343E-02
  3.82945876E-02  4.10362045E-02  6.32913726E-02  6.48113230E-02  7.25786673E-02
  8.41374924E-02  8.92149212E-02  9.85775489E-02  1.10711560E-01  1.15543711E-01
  1.18651909E-01  1.22032477E-01  1.29321650E-01  1.29896228E-01  1.34522716E-01
  1.41667162E-01  1.49694335E-01  1.56002209E-01  1.59955658E-01  1.65452191E-01
  1.70506355E-01  1.89767029E-01  1.91813904E-01  2.13265616E-01  2.19553902E-01
  2.25000411E-01  2.51792804E-01  2.60163939E-01  2.72468573E-01  2.91907711E-01
  3.41241047E-01  3.57185445E-01  3.86627380E-01  4.27201906E-01  4.29880916E-01
  4.45799357E-01  4.60674004E-01  4.74467296E-01  4.88026264E-01  4.96267552E-01
  5.25120692E-01  5.32176030E-01  5.67685733E-01  5.89218931E-01  5.97851065E-01
  6.22211456E-01  6.34960621E-01  6.48869124E-01  6.55333582E-01  6.63628015E-01
  6.86369164E-01  7.06369036E-01  7.32341764E-01  7.37992429E-01  7.83044676E-01
  8.16364999E-01  8.29020557E-01  8.61042301E-01  8.92093711E-01  9.01432626E-01
  9.41661912E-01  9.61189333E-01  1.00530349E+00  1.02951752E+00  1.07092418E+00
  1.08198129E+00  1.12313369E+00  1.16961993E+00  1.19875605E+00  1.29339348E+00
  1.39300505E+00  1.44804838E+00  1.45237835E+00  1.47659950E+00  1.50141085E+00
  1.56361661E+00  1.56840774E+00  1.58396525E+00  1.58880685E+00  1.62447226E+00
  1.65456363E+00  1.69310938E+00  1.70131985E+00  1.72639191E+00  1.77035756E+00
  1.78693337E+00  1.86092200E+00  1.87482917E+00  1.93588920E+00  1.98942315E+00
  2.02065099E+00  2.06714265E+00  2.12816888E+00  2.18569511E+00  2.19623361E+00
  2.21630103E+00  2.28136755E+00  2.30243952E+00  2.30462812E+00  2.34885103E+00
  2.37877328E+00  2.44277623E+00  2.46065652E+00  2.48429538E+00  2.52137430E+00
  2.56104194E+00  2.57540845E+00  2.59578112E+00  2.60801836E+00  2.64018712E+00
  2.72887825E+00  2.73588436E+00  2.74721521E+00  2.77534966E+00  2.85067995E+00
  2.86658755E+00  2.93059977E+00  3.07997001E+00  3.09827474E+00  3.18660069E+00
  3.39167158E+00  3.50313804E+00  3.70241471E+00  3.77620819E+00  3.81260193E+00
  3.94649060E+00  4.11078408E+00  4.29453084E+00  9.75561737E+00  2.37210787E+01
  2.38070386E+01  2.39452652E+01  2.42404021E+01  2.59317602E+01  2.59729850E+01
  2.64464884E+01  2.15745505E+02
Alpha MO coefficients                      R   N=       27889
  1.94280116E-07 -4.23110409E-07 -2.64779121E-06 -2.13422781E-06 -1.23005233E-06
  6.64489336E-07  1.95158211E-05  1.54058750E-05  8.90117699E-06  6.62319168E-06
  3.27115084E-05  3.21818600E-05  2.32335261E-05 -1.69658311E-03 -1.52649300E-04
  5.12476018E-04  3.77361406E-05  7.35506576E-06 -3.45435657E-06 -4.71906188E-06
  1.27527213E-05  2.50405403E-07  1.47222877E-06 -3.05845477E-06  1.21223715E-05
 -1.17769739E-05  5.06958246E-06 -1.54669100E-05 -1.41508750E-05  1.85360677E-05
 -1.82548845E-05  1.69277772E-04  1.36408567E-04 -1.14679491E-04 -5.47093377E-06
  3.79061313E-03 -4.58981888E-04  4.64701604E-04  8.53651552E-04  9.81042048E-06
 -2.45958139E-06  2.39360565E-06 -2.77608245E-06  7.53750740E-06 -6.87763226E-07
  1.98612018E-06  4.02884450E-06 -2.50872621E-06 -4.18750594E-06 -9.30998516E-06
 -2.44364965E-05  9.77058067E-06  2.52759504E-05  2.83209347E-05  1.16024650E-05
 -1.24012165E-05 -6.69444679E-05 -1.11657472E-03 -1.24422813E-03 -3.90790254E-04
 -8.81817046E-05  5.99087263E-06  4.68707176E-06 -6.25262094E-06  7.13805640E-07
 -4.83281506E-06  4.14908341E-07 -1.21086210E-06 -1.58733460E-06  6.83224818E-07
  3.95707629E-07  1.06662711E-05  7.89844256E-06 -2.45527687E-06  3.05145493E-06
 -5.97404126E-05 -8.63618640E-05 -1.97396600E-05  5.36815534E-05 -1.71438405E-03
 -3.36413232E-04 -1.80699372E-04 -1.59604585E-04 -5.24413836E-06 -2.65210629E-06
 -3.88368834E-06 -9.69235974E-07 -1.04229935E-06 -2.99361417E-06  3.33010174E-05
  4.65474645E-05  2.30812122E-05  7.88509989E-06  1.32298896E-07  6.08984968E-06
  1.23064244E-05 -8.30187133E-05  8.47063330E-05  2.25238037E-04  8.25507110E-06
  1.29583756E-05 -1.07483993E-05  2.41469645E-06 -2.37334164E-05 -3.91542119E-05
 -1.03580594E-04 -1.87802365E-06 -7.13062625E-07  1.51317294E-06  5.12453056E-06
 -2.99222717E-05  5.97566065E-05  1.30698251E-04 -1.05525492E-05  2.12573428E-06
  1.26615072E-05 -1.03967457E-06 -6.11016236E-05 -1.10166151E-04  1.37826536E-04
 -6.48726176E-06  1.35677550E-06 -1.52591831E-05  1.02789965E-05 -6.26176826E-05
 -1.60144704E-05  8.56275573E-05 -4.60505791E-06  1.24853676E-05  1.48586454E-05
 -7.57002909E-06  3.71148932E-05 -1.35702043E-04 -3.10385592E-04  3.62566748E-07
 -4.76213702E-06 -7.63509178E-07  4.11609634E-01  6.54076203E-01  1.50038488E-02