(R)-3-chloro-1-butene tau=120                                           
SP        RB3LYP                                                      6-311++G(d,p)       
Number of atoms                            I               12
Info1-9                                    I   N=           9
          26          26           0           0           0         110
           1          18        -502
Full Title                                 C   N=           3
(R)-3-chloro-1-butene tau=120       
Route                                      C   N=           7
#P B3LYP/6-311++G** scf(conver=11) int=ultrafine polar=optro
t cphf(rdfreq,conver=11)
Charge                                     I                0
Multiplicity                               I                1
Number of electrons                        I               48
Number of alpha electrons                  I               24
Number of beta electrons                   I               24
Number of basis functions                  I              167
Number of independent functions            I              167
Number of point charges in /Mol/           I                0
Number of translation vectors              I                0
Atomic numbers                             I   N=          12
           6           6           6           6           1           1
           1           1           1           1           1          17
Nuclear charges                            R   N=          12
  6.00000000E+00  6.00000000E+00  6.00000000E+00  6.00000000E+00  1.00000000E+00
  1.00000000E+00  1.00000000E+00  1.00000000E+00  1.00000000E+00  1.00000000E+00
  1.00000000E+00  1.70000000E+01
Current cartesian coordinates              R   N=          36
  8.82071536E-01  3.31538074E+00  7.30957970E-02  9.55614788E-03  6.61187598E-01
 -6.15653065E-01 -2.27839205E+00 -1.85284863E-01  8.03186462E-01 -4.41475739E+00
 -9.48301774E-01 -3.00863109E-01 -4.58034067E+00 -1.04253118E+00 -2.23456024E+00
  2.58309034E+00  3.82048107E+00 -9.58096120E-01 -5.97684441E+00 -1.47499454E+00
  7.59282700E-01 -2.13144303E+00 -1.17220921E-01  2.88504831E+00 -2.92945703E-01
  4.88205519E-01 -2.62552887E+00  1.27418961E+00  3.46294156E+00  2.10483173E+00
 -6.08400000E-01  4.66548982E+00 -4.04181731E-01  2.62010732E+00 -1.58001538E+00
  4.20357480E-02
Number of symbols in /Mol/                 I                0
Force Field                                I                0
Atom Types                                 C   N=          12
                                                            
                                                            
                        
Int Atom Types                             I   N=          12
           0           0           0           0           0           0
           0           0           0           0           0           0
MM charges                                 R   N=          12
  0.00000000E+00  0.00000000E+00  0.00000000E+00  0.00000000E+00  0.00000000E+00
  0.00000000E+00  0.00000000E+00  0.00000000E+00  0.00000000E+00  0.00000000E+00
  0.00000000E+00  0.00000000E+00
Integer atomic weights                     I   N=          12
          12          12          12          12           1           1
           1           1           1           1           1          35
Real atomic weights                        R   N=          12
  1.20000000E+01  1.20000000E+01  1.20000000E+01  1.20000000E+01  1.00782504E+00
  1.00782504E+00  1.00782504E+00  1.00782504E+00  1.00782504E+00  1.00782504E+00
  1.00782504E+00  3.49688527E+01
Atom fragment info                         I   N=          12
           0           0           0           0           0           0
           0           0           0           0           0           0
Atom residue num                           I   N=          12
           0           0           0           0           0           0
           0           0           0           0           0           0
Nuclear spins                              I   N=          12
           0           0           0           0           1           1
           1           1           1           1           1           3
Nuclear ZEff                               R   N=          12
 -3.60000000E+00 -3.60000000E+00 -3.60000000E+00 -3.60000000E+00 -1.00000000E+00
 -1.00000000E+00 -1.00000000E+00 -1.00000000E+00 -1.00000000E+00 -1.00000000E+00
 -1.00000000E+00 -1.42400000E+01
Nuclear ZNuc                               R   N=          12
  6.00000000E+00  6.00000000E+00  6.00000000E+00  6.00000000E+00  1.00000000E+00
  1.00000000E+00  1.00000000E+00  1.00000000E+00  1.00000000E+00  1.00000000E+00
  1.00000000E+00  1.70000000E+01
Nuclear QMom                               R   N=          12
  0.00000000E+00  0.00000000E+00  0.00000000E+00  0.00000000E+00  0.00000000E+00
  0.00000000E+00  0.00000000E+00  0.00000000E+00  0.00000000E+00  0.00000000E+00
  0.00000000E+00 -8.16500000E+00
Nuclear GFac                               R   N=          12
  0.00000000E+00  0.00000000E+00  0.00000000E+00  0.00000000E+00  2.79284600E+00
  2.79284600E+00  2.79284600E+00  2.79284600E+00  2.79284600E+00  2.79284600E+00
  2.79284600E+00  8.21874000E-01
MicOpt                                     I   N=          12
          -1          -1          -1          -1          -1          -1
          -1          -1          -1          -1          -1          -1
Number of residues                         I                0
Number of secondary structures             I                0
SymInf integers                            I   N=          26
           1           1           1           1           1           0
           0           0           0           0           0           0
           0           0           0           0           0           0
           0           0           0           0           0           0
           0           0
RotTr to input orientation                 R   N=          12
  9.99999483E-01 -1.01692544E-03  0.00000000E+00  1.01692544E-03  9.99999483E-01
  0.00000000E+00  0.00000000E+00  0.00000000E+00  1.00000000E+00  7.62579296E-04
  2.83697104E-04  1.21169279E-03
Number of contracted shells                I               72
Number of primitive shells                 I              126
Pure/Cartesian d shells                    I                0
Pure/Cartesian f shells                    I                0
Highest angular momentum                   I                2
Largest degree of contraction              I                6
Shell types                                I   N=          72
           0          -1          -1          -1          -1          -2
           0          -1          -1          -1          -1          -2
           0          -1          -1          -1          -1          -2
           0          -1          -1          -1          -1          -2
           0           0           0           0           1           0
           0           0           0           1           0           0
           0           0           1           0           0           0
           0           1           0           0           0           0
           1           0           0           0           0           1
           0           0           0           0           1           0
           0           0           0           0           0          -1
           1           1           1           1           1          -2
Number of primitives per shell             I   N=          72
           6           3           1           1           1           1
           6           3           1           1           1           1
           6           3           1           1           1           1
           6           3           1           1           1           1
           3           1           1           1           1           3
           1           1           1           1           3           1
           1           1           1           3           1           1
           1           1           3           1           1           1
           1           3           1           1           1           1
           3           1           1           1           1           6
           3           1           1           1           1           1
           5           2           1           1           1           1
Shell to atom map                          I   N=          72
           1           1           1           1           1           1
           2           2           2           2           2           2
           3           3           3           3           3           3
           4           4           4           4           4           4
           5           5           5           5           5           6
           6           6           6           6           7           7
           7           7           7           8           8           8
           8           8           9           9           9           9
           9          10          10          10          10          10
          11          11          11          11          11          12
          12          12          12          12          12          12
          12          12          12          12          12          12
Primitive exponents                        R   N=         126
  4.56324000E+03  6.82024000E+02  1.54973000E+02  4.44553000E+01  1.30290000E+01
  1.82773000E+00  2.09642000E+01  4.80331000E+00  1.45933000E+00  4.83456000E-01
  1.45585000E-01  4.38000000E-02  6.26000000E-01  4.56324000E+03  6.82024000E+02
  1.54973000E+02  4.44553000E+01  1.30290000E+01  1.82773000E+00  2.09642000E+01
  4.80331000E+00  1.45933000E+00  4.83456000E-01  1.45585000E-01  4.38000000E-02
  6.26000000E-01  4.56324000E+03  6.82024000E+02  1.54973000E+02  4.44553000E+01
  1.30290000E+01  1.82773000E+00  2.09642000E+01  4.80331000E+00  1.45933000E+00
  4.83456000E-01  1.45585000E-01  4.38000000E-02  6.26000000E-01  4.56324000E+03
  6.82024000E+02  1.54973000E+02  4.44553000E+01  1.30290000E+01  1.82773000E+00
  2.09642000E+01  4.80331000E+00  1.45933000E+00  4.83456000E-01  1.45585000E-01
  4.38000000E-02  6.26000000E-01  3.38650000E+01  5.09479000E+00  1.15879000E+00
  3.25840000E-01  1.02741000E-01  3.60000000E-02  7.50000000E-01  3.38650000E+01
  5.09479000E+00  1.15879000E+00  3.25840000E-01  1.02741000E-01  3.60000000E-02
  7.50000000E-01  3.38650000E+01  5.09479000E+00  1.15879000E+00  3.25840000E-01
  1.02741000E-01  3.60000000E-02  7.50000000E-01  3.38650000E+01  5.09479000E+00
  1.15879000E+00  3.25840000E-01  1.02741000E-01  3.60000000E-02  7.50000000E-01
  3.38650000E+01  5.09479000E+00  1.15879000E+00  3.25840000E-01  1.02741000E-01
  3.60000000E-02  7.50000000E-01  3.38650000E+01  5.09479000E+00  1.15879000E+00
  3.25840000E-01  1.02741000E-01  3.60000000E-02  7.50000000E-01  3.38650000E+01
  5.09479000E+00  1.15879000E+00  3.25840000E-01  1.02741000E-01  3.60000000E-02
  7.50000000E-01  1.05819000E+05  1.58720000E+04  3.61965000E+03  1.03080000E+03
  3.39908000E+02  1.24538000E+02  1.24538000E+02  4.95135000E+01  2.08056000E+01
  6.58346000E+00  2.56468000E+00  5.59763000E-01  1.83273000E-01  4.83000000E-02
  5.89776000E+02  1.39849000E+02  4.51413000E+01  1.68733000E+01  2.77152000E+00
  6.74110000E+00  2.77152000E+00  1.02387000E+00  3.81368000E-01  1.09437000E-01
  7.50000000E-01
Contraction coefficients                   R   N=         126
  1.96665025E-03  1.52306019E-02  7.61269097E-02  2.60801033E-01  6.16462078E-01
  2.21006028E-01  1.14660081E-01  9.19999648E-01 -3.03068213E-03  1.00000000E+00
  1.00000000E+00  1.00000000E+00  1.00000000E+00  1.96665025E-03  1.52306019E-02
  7.61269097E-02  2.60801033E-01  6.16462078E-01  2.21006028E-01  1.14660081E-01
  9.19999648E-01 -3.03068213E-03  1.00000000E+00  1.00000000E+00  1.00000000E+00
  1.00000000E+00  1.96665025E-03  1.52306019E-02  7.61269097E-02  2.60801033E-01
  6.16462078E-01  2.21006028E-01  1.14660081E-01  9.19999648E-01 -3.03068213E-03
  1.00000000E+00  1.00000000E+00  1.00000000E+00  1.00000000E+00  1.96665025E-03
  1.52306019E-02  7.61269097E-02  2.60801033E-01  6.16462078E-01  2.21006028E-01
  1.14660081E-01  9.19999648E-01 -3.03068213E-03  1.00000000E+00  1.00000000E+00
  1.00000000E+00  1.00000000E+00  2.54938145E-02  1.90373109E-01  8.52161486E-01
  1.00000000E+00  1.00000000E+00  1.00000000E+00  1.00000000E+00  2.54938145E-02
  1.90373109E-01  8.52161486E-01  1.00000000E+00  1.00000000E+00  1.00000000E+00
  1.00000000E+00  2.54938145E-02  1.90373109E-01  8.52161486E-01  1.00000000E+00
  1.00000000E+00  1.00000000E+00  1.00000000E+00  2.54938145E-02  1.90373109E-01
  8.52161486E-01  1.00000000E+00  1.00000000E+00  1.00000000E+00  1.00000000E+00
  2.54938145E-02  1.90373109E-01  8.52161486E-01  1.00000000E+00  1.00000000E+00
  1.00000000E+00  1.00000000E+00  2.54938145E-02  1.90373109E-01  8.52161486E-01
  1.00000000E+00  1.00000000E+00  1.00000000E+00  1.00000000E+00  2.54938145E-02
  1.90373109E-01  8.52161486E-01  1.00000000E+00  1.00000000E+00  1.00000000E+00
  1.00000000E+00  7.38000247E-04  5.71800191E-03  2.94950099E-02  1.17286039E-01
  3.62949121E-01  5.84149195E-01  1.34176973E-01  6.24249876E-01  2.91755942E-01
  1.00000000E+00  1.00000000E+00  1.00000000E+00  1.00000000E+00  1.00000000E+00
  3.66556935E-03  2.83679194E-02  1.24756603E-01  3.39654631E-01  7.47585963E-01
 -1.57224381E+00  9.92388882E-01  1.00000000E+00  1.00000000E+00  1.00000000E+00
  1.00000000E+00
P(S=P) Contraction coefficients            R   N=         126
  0.00000000E+00  0.00000000E+00  0.00000000E+00  0.00000000E+00  0.00000000E+00
  0.00000000E+00  4.02486927E-02  2.37593957E-01  8.15853851E-01  1.00000000E+00
  1.00000000E+00  1.00000000E+00  0.00000000E+00  0.00000000E+00  0.00000000E+00
  0.00000000E+00  0.00000000E+00  0.00000000E+00  0.00000000E+00  4.02486927E-02
  2.37593957E-01  8.15853851E-01  1.00000000E+00  1.00000000E+00  1.00000000E+00
  0.00000000E+00  0.00000000E+00  0.00000000E+00  0.00000000E+00  0.00000000E+00
  0.00000000E+00  0.00000000E+00  4.02486927E-02  2.37593957E-01  8.15853851E-01
  1.00000000E+00  1.00000000E+00  1.00000000E+00  0.00000000E+00  0.00000000E+00
  0.00000000E+00  0.00000000E+00  0.00000000E+00  0.00000000E+00  0.00000000E+00
  4.02486927E-02  2.37593957E-01  8.15853851E-01  1.00000000E+00  1.00000000E+00
  1.00000000E+00  0.00000000E+00  0.00000000E+00  0.00000000E+00  0.00000000E+00
  0.00000000E+00  0.00000000E+00  0.00000000E+00  0.00000000E+00  0.00000000E+00
  0.00000000E+00  0.00000000E+00  0.00000000E+00  0.00000000E+00  0.00000000E+00
  0.00000000E+00  0.00000000E+00  0.00000000E+00  0.00000000E+00  0.00000000E+00
  0.00000000E+00  0.00000000E+00  0.00000000E+00  0.00000000E+00  0.00000000E+00
  0.00000000E+00  0.00000000E+00  0.00000000E+00  0.00000000E+00  0.00000000E+00
  0.00000000E+00  0.00000000E+00  0.00000000E+00  0.00000000E+00  0.00000000E+00
  0.00000000E+00  0.00000000E+00  0.00000000E+00  0.00000000E+00  0.00000000E+00
  0.00000000E+00  0.00000000E+00  0.00000000E+00  0.00000000E+00  0.00000000E+00
  0.00000000E+00  0.00000000E+00  0.00000000E+00  0.00000000E+00  0.00000000E+00
  0.00000000E+00  0.00000000E+00  0.00000000E+00  0.00000000E+00  0.00000000E+00
  0.00000000E+00  0.00000000E+00  0.00000000E+00  0.00000000E+00  0.00000000E+00
  0.00000000E+00  0.00000000E+00  0.00000000E+00  0.00000000E+00  1.00000000E+00
  0.00000000E+00  0.00000000E+00  0.00000000E+00  0.00000000E+00  0.00000000E+00
  0.00000000E+00  0.00000000E+00  0.00000000E+00  0.00000000E+00  0.00000000E+00
  0.00000000E+00
Coordinates of each shell                  R   N=         216
  8.82071536E-01  3.31538074E+00  7.30957970E-02  8.82071536E-01  3.31538074E+00
  7.30957970E-02  8.82071536E-01  3.31538074E+00  7.30957970E-02  8.82071536E-01
  3.31538074E+00  7.30957970E-02  8.82071536E-01  3.31538074E+00  7.30957970E-02
  8.82071536E-01  3.31538074E+00  7.30957970E-02  9.55614788E-03  6.61187598E-01
 -6.15653065E-01  9.55614788E-03  6.61187598E-01 -6.15653065E-01  9.55614788E-03
  6.61187598E-01 -6.15653065E-01  9.55614788E-03  6.61187598E-01 -6.15653065E-01
  9.55614788E-03  6.61187598E-01 -6.15653065E-01  9.55614788E-03  6.61187598E-01
 -6.15653065E-01 -2.27839205E+00 -1.85284863E-01  8.03186462E-01 -2.27839205E+00
 -1.85284863E-01  8.03186462E-01 -2.27839205E+00 -1.85284863E-01  8.03186462E-01
 -2.27839205E+00 -1.85284863E-01  8.03186462E-01 -2.27839205E+00 -1.85284863E-01
  8.03186462E-01 -2.27839205E+00 -1.85284863E-01  8.03186462E-01 -4.41475739E+00
 -9.48301774E-01 -3.00863109E-01 -4.41475739E+00 -9.48301774E-01 -3.00863109E-01
 -4.41475739E+00 -9.48301774E-01 -3.00863109E-01 -4.41475739E+00 -9.48301774E-01
 -3.00863109E-01 -4.41475739E+00 -9.48301774E-01 -3.00863109E-01 -4.41475739E+00
 -9.48301774E-01 -3.00863109E-01 -4.58034067E+00 -1.04253118E+00 -2.23456024E+00
 -4.58034067E+00 -1.04253118E+00 -2.23456024E+00 -4.58034067E+00 -1.04253118E+00
 -2.23456024E+00 -4.58034067E+00 -1.04253118E+00 -2.23456024E+00 -4.58034067E+00
 -1.04253118E+00 -2.23456024E+00  2.58309034E+00  3.82048107E+00 -9.58096120E-01
  2.58309034E+00  3.82048107E+00 -9.58096120E-01  2.58309034E+00  3.82048107E+00
 -9.58096120E-01  2.58309034E+00  3.82048107E+00 -9.58096120E-01  2.58309034E+00
  3.82048107E+00 -9.58096120E-01 -5.97684441E+00 -1.47499454E+00  7.59282700E-01
 -5.97684441E+00 -1.47499454E+00  7.59282700E-01 -5.97684441E+00 -1.47499454E+00
  7.59282700E-01 -5.97684441E+00 -1.47499454E+00  7.59282700E-01 -5.97684441E+00
 -1.47499454E+00  7.59282700E-01 -2.13144303E+00 -1.17220921E-01  2.88504831E+00
 -2.13144303E+00 -1.17220921E-01  2.88504831E+00 -2.13144303E+00 -1.17220921E-01
  2.88504831E+00 -2.13144303E+00 -1.17220921E-01  2.88504831E+00 -2.13144303E+00
 -1.17220921E-01  2.88504831E+00 -2.92945703E-01  4.88205519E-01 -2.62552887E+00
 -2.92945703E-01  4.88205519E-01 -2.62552887E+00 -2.92945703E-01  4.88205519E-01
 -2.62552887E+00 -2.92945703E-01  4.88205519E-01 -2.62552887E+00 -2.92945703E-01
  4.88205519E-01 -2.62552887E+00  1.27418961E+00  3.46294156E+00  2.10483173E+00
  1.27418961E+00  3.46294156E+00  2.10483173E+00  1.27418961E+00  3.46294156E+00
  2.10483173E+00  1.27418961E+00  3.46294156E+00  2.10483173E+00  1.27418961E+00
  3.46294156E+00  2.10483173E+00 -6.08400000E-01  4.66548982E+00 -4.04181731E-01
 -6.08400000E-01  4.66548982E+00 -4.04181731E-01 -6.08400000E-01  4.66548982E+00
 -4.04181731E-01 -6.08400000E-01  4.66548982E+00 -4.04181731E-01 -6.08400000E-01
  4.66548982E+00 -4.04181731E-01  2.62010732E+00 -1.58001538E+00  4.20357480E-02
  2.62010732E+00 -1.58001538E+00  4.20357480E-02  2.62010732E+00 -1.58001538E+00
  4.20357480E-02  2.62010732E+00 -1.58001538E+00  4.20357480E-02  2.62010732E+00
 -1.58001538E+00  4.20357480E-02  2.62010732E+00 -1.58001538E+00  4.20357480E-02
  2.62010732E+00 -1.58001538E+00  4.20357480E-02  2.62010732E+00 -1.58001538E+00
  4.20357480E-02  2.62010732E+00 -1.58001538E+00  4.20357480E-02  2.62010732E+00
 -1.58001538E+00  4.20357480E-02  2.62010732E+00 -1.58001538E+00  4.20357480E-02
  2.62010732E+00 -1.58001538E+00  4.20357480E-02  2.62010732E+00 -1.58001538E+00
  4.20357480E-02
Constraint Structure                       R   N=          36
  8.82071536E-01  3.31538074E+00  7.30957970E-02  9.55614788E-03  6.61187598E-01
 -6.15653065E-01 -2.27839205E+00 -1.85284863E-01  8.03186462E-01 -4.41475739E+00
 -9.48301774E-01 -3.00863109E-01 -4.58034067E+00 -1.04253118E+00 -2.23456024E+00
  2.58309034E+00  3.82048107E+00 -9.58096120E-01 -5.97684441E+00 -1.47499454E+00
  7.59282700E-01 -2.13144303E+00 -1.17220921E-01  2.88504831E+00 -2.92945703E-01
  4.88205519E-01 -2.62552887E+00  1.27418961E+00  3.46294156E+00  2.10483173E+00
 -6.08400000E-01  4.66548982E+00 -4.04181731E-01  2.62010732E+00 -1.58001538E+00
  4.20357480E-02
Num ILSW                                   I              100
ILSW                                       I   N=         100
           0           0           0           0           2           0
           0           0           0           0         402          -1
           5           0           0           0           0           0
           0           0           0           0           0           0
           1           0           0           0           0           0
           0           0      100000           0          -1           0
           0           0           0           0           0           0
           0           0           0           1           0           0
           0           0           1           0           0           0
           0           0           4          41           0           0
           0           0           5           0           0           0
           0           0           0           0           0           0
           0           0           0           0           0           0
           0           0           0           0           0           0
           0           0           0           0           0           0
           0           0           0           0           0           0
           0           0           0           0
Num RLSW                                   I               41
RLSW                                       R   N=          41
  8.00000000E-01  7.20000000E-01  1.00000000E+00  8.10000000E-01  2.00000000E-01
  0.00000000E+00  0.00000000E+00  1.00000000E+00  0.00000000E+00  0.00000000E+00
  0.00000000E+00  0.00000000E+00  1.00000000E+00  0.00000000E+00  0.00000000E+00
  0.00000000E+00  0.00000000E+00  1.00000000E+00  0.00000000E+00  0.00000000E+00
  0.00000000E+00  0.00000000E+00  1.00000000E+00  0.00000000E+00  0.00000000E+00
  0.00000000E+00  0.00000000E+00  1.00000000E+00  0.00000000E+00  0.00000000E+00
  0.00000000E+00  0.00000000E+00  0.00000000E+00  0.00000000E+00  0.00000000E+00
  0.00000000E+00  0.00000000E+00  0.00000000E+00  1.00000000E+00  1.00000000E+00
  0.00000000E+00
MxBond                                     I                4
NBond                                      I   N=          12
           4           4           3           3           1           1
           1           1           1           1           1           1
IBond                                      I   N=          48
           2           6          10          11           1           3
           9          12           2           4           8           0
           3           5           7           0           4           0
           0           0           1           0           0           0
           4           0           0           0           3           0
           0           0           2           0           0           0
           1           0           0           0           1           0
           0           0           2           0           0           0
RBond                                      R   N=          48
  1.00000000E+00  1.00000000E+00  1.00000000E+00  1.00000000E+00  1.00000000E+00
  1.00000000E+00  1.00000000E+00  1.00000000E+00  1.00000000E+00  2.00000000E+00
  1.00000000E+00  0.00000000E+00  2.00000000E+00  1.00000000E+00  1.00000000E+00
  0.00000000E+00  1.00000000E+00  0.00000000E+00  0.00000000E+00  0.00000000E+00
  1.00000000E+00  0.00000000E+00  0.00000000E+00  0.00000000E+00  1.00000000E+00
  0.00000000E+00  0.00000000E+00  0.00000000E+00  1.00000000E+00  0.00000000E+00
  0.00000000E+00  0.00000000E+00  1.00000000E+00  0.00000000E+00  0.00000000E+00
  0.00000000E+00  1.00000000E+00  0.00000000E+00  0.00000000E+00  0.00000000E+00
  1.00000000E+00  0.00000000E+00  0.00000000E+00  0.00000000E+00  1.00000000E+00
  0.00000000E+00  0.00000000E+00  0.00000000E+00
Virial Ratio                               R      2.002835179062852E+00
SCF Energy                                 R     -6.168916196403710E+02
Total Energy                               R     -6.168916196403710E+02
RMS Density                                R      3.462667370926244E-12
Nuclear derivative order                   I                0
External E-field                           R   N=          35
  0.00000000E+00  0.00000000E+00  0.00000000E+00  0.00000000E+00  0.00000000E+00
  0.00000000E+00  0.00000000E+00  0.00000000E+00  0.00000000E+00  0.00000000E+00
  0.00000000E+00  0.00000000E+00  0.00000000E+00  0.00000000E+00  0.00000000E+00
  0.00000000E+00  0.00000000E+00  0.00000000E+00  0.00000000E+00  0.00000000E+00
  0.00000000E+00  0.00000000E+00  0.00000000E+00  0.00000000E+00  0.00000000E+00
  0.00000000E+00  0.00000000E+00  0.00000000E+00  0.00000000E+00  0.00000000E+00
  0.00000000E+00  0.00000000E+00  0.00000000E+00  0.00000000E+00  0.00000000E+00
IOpCl                                      I                0
IROHF                                      I                0
Alpha Orbital Energies                     R   N=         167
 -1.01533998E+02 -1.02464472E+01 -1.01956374E+01 -1.01811541E+01 -1.01739397E+01
 -9.44842351E+00 -7.21276156E+00 -7.20334099E+00 -7.20318014E+00 -8.67595520E-01
 -7.87930311E-01 -7.43279233E-01 -6.44211055E-01 -5.80304870E-01 -4.88761980E-01
 -4.80332998E-01 -4.46236423E-01 -4.16491693E-01 -4.05408074E-01 -3.75350823E-01
 -3.69139722E-01 -3.05978458E-01 -2.98595505E-01 -2.79749632E-01 -3.33585567E-02
 -7.28724258E-03  7.11910371E-03  7.71339213E-03  2.19477033E-02  2.85221805E-02
  3.89894933E-02  4.16631806E-02  6.41686287E-02  6.52824538E-02  7.29591367E-02
  8.37568106E-02  8.88780928E-02  9.88829564E-02  1.11041046E-01  1.15854879E-01
  1.18689111E-01  1.22551092E-01  1.30203739E-01  1.31245532E-01  1.35619505E-01
  1.41761776E-01  1.50196156E-01  1.57253714E-01  1.64068273E-01  1.66536242E-01
  1.72308536E-01  1.89731138E-01  1.96352783E-01  2.16421509E-01  2.20376109E-01
  2.26449875E-01  2.49737212E-01  2.61377978E-01  2.73489129E-01  2.92219407E-01
  3.42063423E-01  3.59872328E-01  3.89497140E-01  4.25970901E-01  4.30812996E-01
  4.47444843E-01  4.59073690E-01  4.78663823E-01  4.88140306E-01  4.96330144E-01
  5.26153897E-01  5.37800632E-01  5.68363225E-01  5.89702482E-01  5.98116285E-01
  6.23439965E-01  6.35887595E-01  6.47783724E-01  6.57351434E-01  6.63192856E-01
  6.98294282E-01  7.10519602E-01  7.40914822E-01  7.49896991E-01  7.88162343E-01
  8.15009448E-01  8.37824156E-01  8.62697691E-01  8.91734657E-01  9.01934576E-01
  9.43483514E-01  9.61046040E-01  1.00555262E+00  1.03254045E+00  1.06850735E+00
  1.08326525E+00  1.12670272E+00  1.17610567E+00  1.19818434E+00  1.29272822E+00
  1.39396951E+00  1.44614991E+00  1.45425097E+00  1.48072877E+00  1.50837760E+00
  1.55659522E+00  1.56161488E+00  1.58859750E+00  1.60119237E+00  1.63100384E+00
  1.66972324E+00  1.69949158E+00  1.70977502E+00  1.72935859E+00  1.77422933E+00
  1.79216013E+00  1.87811184E+00  1.89801872E+00  1.94204134E+00  1.98857451E+00
  2.02638319E+00  2.07583701E+00  2.12652310E+00  2.18761553E+00  2.20038545E+00
  2.21426844E+00  2.25588527E+00  2.29805914E+00  2.30768618E+00  2.35428625E+00
  2.37566474E+00  2.45293240E+00  2.46210727E+00  2.50090813E+00  2.53050388E+00
  2.56686214E+00  2.58878387E+00  2.60757973E+00  2.61876021E+00  2.64319447E+00
  2.73896596E+00  2.74642691E+00  2.75793272E+00  2.80723229E+00  2.86299099E+00
  2.86943776E+00  2.93209073E+00  3.08423589E+00  3.10885202E+00  3.18654922E+00
  3.40425325E+00  3.50960414E+00  3.78837098E+00  3.79829806E+00  3.82533301E+00
  3.96905712E+00  4.12796231E+00  4.31913060E+00  9.75599788E+00  2.37614039E+01
  2.38112220E+01  2.39469468E+01  2.42691147E+01  2.59308147E+01  2.59737143E+01
  2.64455134E+01  2.15745801E+02
Alpha MO coefficients                      R   N=       27889
  1.89455474E-07 -4.10860731E-07 -2.69120640E-06 -2.10493558E-06 -1.26930534E-06
  4.65348911E-07  2.01978091E-05  1.51640333E-05  8.68005852E-06  1.42043965E-05
  3.71592149E-05  2.94086937E-05  2.20554086E-05 -1.67189982E-03 -1.53450793E-04
  5.06297593E-04  3.84070016E-05  7.35169932E-06 -3.47804276E-06 -4.62376367E-06
  1.30981803E-05  5.32195090E-07  1.50379874E-06 -3.13490516E-06  1.21199902E-05
 -1.18976528E-05  5.32181806E-06 -1.48385530E-05 -1.37125033E-05  1.91245106E-05
 -2.01097664E-05  1.71727733E-04  1.28404517E-04 -1.20729906E-04 -8.11535557E-06
  3.72571538E-03 -4.73666492E-04  4.59065111E-04  8.28888298E-04  9.98764937E-06
 -1.26383339E-06  3.38884024E-06 -2.61974021E-06  7.72472963E-06 -6.60173882E-07
  1.91497468E-06  4.11451194E-06 -2.53631538E-06 -4.16120397E-06 -9.52206933E-06
 -2.42597417E-05  9.77319050E-06  2.42629928E-05  2.10130593E-05  1.60486237E-05
 -9.48073246E-06 -6.26709353E-05 -1.10410253E-03 -1.21620275E-03 -3.88602321E-04
 -1.05746900E-04  6.28696395E-06  5.59970255E-06 -5.87529145E-06  7.95422804E-07
 -4.30135499E-06  2.66474059E-07 -8.06659518E-07 -1.81493434E-06  6.21914328E-07
  6.90091089E-07  8.49722100E-06  8.30842226E-06 -2.19399051E-06  3.97226939E-06
 -5.87076155E-05 -8.72813421E-05 -2.08790875E-05  6.79548304E-05 -1.67476003E-03
 -3.41572005E-04 -1.81053687E-04 -1.22733583E-04 -5.84661157E-06 -1.53242516E-06
 -3.60111343E-06 -1.73722007E-06 -1.58893230E-06 -2.78954902E-06  4.00359223E-05
  6.61958950E-05  5.36127956E-05  6.95684051E-06  6.80726094E-08  7.33691480E-06
  1.22358930E-05 -8.49466442E-05  7.93321118E-05  2.29151977E-04  8.45832379E-06
  1.33726888E-05 -1.12761026E-05  2.49650128E-06 -2.29504661E-05 -5.67339286E-05
 -1.37254372E-04 -9.16554699E-07 -1.62933442E-07  1.15740859E-06  5.97717589E-06
 -3.30188234E-05  6.13754255E-05  1.42472508E-04 -1.10795888E-05  1.75807059E-06
  1.28430964E-05 -1.53521321E-06 -6.24723523E-05 -1.18944374E-04  1.22454160E-04
 -6.55191784E-06  1.83154637E-06 -1.62496029E-05  1.02253175E-05 -6.30070372E-05
 -1.80258460E-05  7.68462916E-05 -4.74624179E-06  1.23262057E-05  1.50321706E-05
 -7.83545076E-06  3.94033525E-05 -1.37564874E-04 -3.10876725E-04  5.40119989E-07
 -5.12329802E-06 -5.81956660E-07  4.11609655E-01  6.54076188E-01  1.50038867E-02