(R)-3-chloro-1-butene tau=120                                           
SP        RB3LYP                                                      6-311++G(d,p)       
Number of atoms                            I               12
Info1-9                                    I   N=           9
          26          26           0           0           0         110
           1          18        -502
Full Title                                 C   N=           3
(R)-3-chloro-1-butene tau=120       
Route                                      C   N=           7
#P B3LYP/6-311++G** scf(conver=11) int=ultrafine polar=optro
t cphf(rdfreq,conver=11)
Charge                                     I                0
Multiplicity                               I                1
Number of electrons                        I               48
Number of alpha electrons                  I               24
Number of beta electrons                   I               24
Number of basis functions                  I              167
Number of independent functions            I              167
Number of point charges in /Mol/           I                0
Number of translation vectors              I                0
Atomic numbers                             I   N=          12
           6           6           6           6           1           1
           1           1           1           1           1          17
Nuclear charges                            R   N=          12
  6.00000000E+00  6.00000000E+00  6.00000000E+00  6.00000000E+00  1.00000000E+00
  1.00000000E+00  1.00000000E+00  1.00000000E+00  1.00000000E+00  1.00000000E+00
  1.00000000E+00  1.70000000E+01
Current cartesian coordinates              R   N=          36
  8.90026160E-01  3.31380238E+00  7.87227890E-02  1.36280287E-02  6.62452467E-01
 -6.14086123E-01 -2.27948580E+00 -1.81152143E-01  7.99008679E-01 -4.40081814E+00
 -9.33571478E-01 -3.16257720E-01 -4.57675062E+00 -1.03041100E+00 -2.26577337E+00
  2.60149712E+00  3.81872987E+00 -9.54316119E-01 -6.13275839E+00 -1.51409124E+00
  8.50897224E-01 -2.13547567E+00 -1.15459042E-01  2.86850585E+00 -2.87890064E-01
  4.90602443E-01 -2.64035283E+00  1.27748528E+00  3.45794877E+00  2.10144814E+00
 -5.97209072E-01  4.66835819E+00 -4.00836454E-01  2.61829412E+00 -1.58499208E+00
  4.44765772E-02
Number of symbols in /Mol/                 I                0
Force Field                                I                0
Atom Types                                 C   N=          12
                                                            
                                                            
                        
Int Atom Types                             I   N=          12
           0           0           0           0           0           0
           0           0           0           0           0           0
MM charges                                 R   N=          12
  0.00000000E+00  0.00000000E+00  0.00000000E+00  0.00000000E+00  0.00000000E+00
  0.00000000E+00  0.00000000E+00  0.00000000E+00  0.00000000E+00  0.00000000E+00
  0.00000000E+00  0.00000000E+00
Integer atomic weights                     I   N=          12
          12          12          12          12           1           1
           1           1           1           1           1          35
Real atomic weights                        R   N=          12
  1.20000000E+01  1.20000000E+01  1.20000000E+01  1.20000000E+01  1.00782504E+00
  1.00782504E+00  1.00782504E+00  1.00782504E+00  1.00782504E+00  1.00782504E+00
  1.00782504E+00  3.49688527E+01
Atom fragment info                         I   N=          12
           0           0           0           0           0           0
           0           0           0           0           0           0
Atom residue num                           I   N=          12
           0           0           0           0           0           0
           0           0           0           0           0           0
Nuclear spins                              I   N=          12
           0           0           0           0           1           1
           1           1           1           1           1           3
Nuclear ZEff                               R   N=          12
 -3.60000000E+00 -3.60000000E+00 -3.60000000E+00 -3.60000000E+00 -1.00000000E+00
 -1.00000000E+00 -1.00000000E+00 -1.00000000E+00 -1.00000000E+00 -1.00000000E+00
 -1.00000000E+00 -1.42400000E+01
Nuclear ZNuc                               R   N=          12
  6.00000000E+00  6.00000000E+00  6.00000000E+00  6.00000000E+00  1.00000000E+00
  1.00000000E+00  1.00000000E+00  1.00000000E+00  1.00000000E+00  1.00000000E+00
  1.00000000E+00  1.70000000E+01
Nuclear QMom                               R   N=          12
  0.00000000E+00  0.00000000E+00  0.00000000E+00  0.00000000E+00  0.00000000E+00
  0.00000000E+00  0.00000000E+00  0.00000000E+00  0.00000000E+00  0.00000000E+00
  0.00000000E+00 -8.16500000E+00
Nuclear GFac                               R   N=          12
  0.00000000E+00  0.00000000E+00  0.00000000E+00  0.00000000E+00  2.79284600E+00
  2.79284600E+00  2.79284600E+00  2.79284600E+00  2.79284600E+00  2.79284600E+00
  2.79284600E+00  8.21874000E-01
MicOpt                                     I   N=          12
          -1          -1          -1          -1          -1          -1
          -1          -1          -1          -1          -1          -1
Number of residues                         I                0
Number of secondary structures             I                0
SymInf integers                            I   N=          26
           1           1           1           1           1           0
           0           0           0           0           0           0
           0           0           0           0           0           0
           0           0           0           0           0           0
           0           0
RotTr to input orientation                 R   N=          12
  9.99997932E-01  1.06609270E-03 -1.73208203E-03 -1.06789560E-03  9.99998889E-01
 -1.04029592E-03  1.73097105E-03  1.04214345E-03  9.99997959E-01 -7.92351538E-04
 -2.46119506E-04  1.65371666E-03
Number of contracted shells                I               72
Number of primitive shells                 I              126
Pure/Cartesian d shells                    I                0
Pure/Cartesian f shells                    I                0
Highest angular momentum                   I                2
Largest degree of contraction              I                6
Shell types                                I   N=          72
           0          -1          -1          -1          -1          -2
           0          -1          -1          -1          -1          -2
           0          -1          -1          -1          -1          -2
           0          -1          -1          -1          -1          -2
           0           0           0           0           1           0
           0           0           0           1           0           0
           0           0           1           0           0           0
           0           1           0           0           0           0
           1           0           0           0           0           1
           0           0           0           0           1           0
           0           0           0           0           0          -1
           1           1           1           1           1          -2
Number of primitives per shell             I   N=          72
           6           3           1           1           1           1
           6           3           1           1           1           1
           6           3           1           1           1           1
           6           3           1           1           1           1
           3           1           1           1           1           3
           1           1           1           1           3           1
           1           1           1           3           1           1
           1           1           3           1           1           1
           1           3           1           1           1           1
           3           1           1           1           1           6
           3           1           1           1           1           1
           5           2           1           1           1           1
Shell to atom map                          I   N=          72
           1           1           1           1           1           1
           2           2           2           2           2           2
           3           3           3           3           3           3
           4           4           4           4           4           4
           5           5           5           5           5           6
           6           6           6           6           7           7
           7           7           7           8           8           8
           8           8           9           9           9           9
           9          10          10          10          10          10
          11          11          11          11          11          12
          12          12          12          12          12          12
          12          12          12          12          12          12
Primitive exponents                        R   N=         126
  4.56324000E+03  6.82024000E+02  1.54973000E+02  4.44553000E+01  1.30290000E+01
  1.82773000E+00  2.09642000E+01  4.80331000E+00  1.45933000E+00  4.83456000E-01
  1.45585000E-01  4.38000000E-02  6.26000000E-01  4.56324000E+03  6.82024000E+02
  1.54973000E+02  4.44553000E+01  1.30290000E+01  1.82773000E+00  2.09642000E+01
  4.80331000E+00  1.45933000E+00  4.83456000E-01  1.45585000E-01  4.38000000E-02
  6.26000000E-01  4.56324000E+03  6.82024000E+02  1.54973000E+02  4.44553000E+01
  1.30290000E+01  1.82773000E+00  2.09642000E+01  4.80331000E+00  1.45933000E+00
  4.83456000E-01  1.45585000E-01  4.38000000E-02  6.26000000E-01  4.56324000E+03
  6.82024000E+02  1.54973000E+02  4.44553000E+01  1.30290000E+01  1.82773000E+00
  2.09642000E+01  4.80331000E+00  1.45933000E+00  4.83456000E-01  1.45585000E-01
  4.38000000E-02  6.26000000E-01  3.38650000E+01  5.09479000E+00  1.15879000E+00
  3.25840000E-01  1.02741000E-01  3.60000000E-02  7.50000000E-01  3.38650000E+01
  5.09479000E+00  1.15879000E+00  3.25840000E-01  1.02741000E-01  3.60000000E-02
  7.50000000E-01  3.38650000E+01  5.09479000E+00  1.15879000E+00  3.25840000E-01
  1.02741000E-01  3.60000000E-02  7.50000000E-01  3.38650000E+01  5.09479000E+00
  1.15879000E+00  3.25840000E-01  1.02741000E-01  3.60000000E-02  7.50000000E-01
  3.38650000E+01  5.09479000E+00  1.15879000E+00  3.25840000E-01  1.02741000E-01
  3.60000000E-02  7.50000000E-01  3.38650000E+01  5.09479000E+00  1.15879000E+00
  3.25840000E-01  1.02741000E-01  3.60000000E-02  7.50000000E-01  3.38650000E+01
  5.09479000E+00  1.15879000E+00  3.25840000E-01  1.02741000E-01  3.60000000E-02
  7.50000000E-01  1.05819000E+05  1.58720000E+04  3.61965000E+03  1.03080000E+03
  3.39908000E+02  1.24538000E+02  1.24538000E+02  4.95135000E+01  2.08056000E+01
  6.58346000E+00  2.56468000E+00  5.59763000E-01  1.83273000E-01  4.83000000E-02
  5.89776000E+02  1.39849000E+02  4.51413000E+01  1.68733000E+01  2.77152000E+00
  6.74110000E+00  2.77152000E+00  1.02387000E+00  3.81368000E-01  1.09437000E-01
  7.50000000E-01
Contraction coefficients                   R   N=         126
  1.96665025E-03  1.52306019E-02  7.61269097E-02  2.60801033E-01  6.16462078E-01
  2.21006028E-01  1.14660081E-01  9.19999648E-01 -3.03068213E-03  1.00000000E+00
  1.00000000E+00  1.00000000E+00  1.00000000E+00  1.96665025E-03  1.52306019E-02
  7.61269097E-02  2.60801033E-01  6.16462078E-01  2.21006028E-01  1.14660081E-01
  9.19999648E-01 -3.03068213E-03  1.00000000E+00  1.00000000E+00  1.00000000E+00
  1.00000000E+00  1.96665025E-03  1.52306019E-02  7.61269097E-02  2.60801033E-01
  6.16462078E-01  2.21006028E-01  1.14660081E-01  9.19999648E-01 -3.03068213E-03
  1.00000000E+00  1.00000000E+00  1.00000000E+00  1.00000000E+00  1.96665025E-03
  1.52306019E-02  7.61269097E-02  2.60801033E-01  6.16462078E-01  2.21006028E-01
  1.14660081E-01  9.19999648E-01 -3.03068213E-03  1.00000000E+00  1.00000000E+00
  1.00000000E+00  1.00000000E+00  2.54938145E-02  1.90373109E-01  8.52161486E-01
  1.00000000E+00  1.00000000E+00  1.00000000E+00  1.00000000E+00  2.54938145E-02
  1.90373109E-01  8.52161486E-01  1.00000000E+00  1.00000000E+00  1.00000000E+00
  1.00000000E+00  2.54938145E-02  1.90373109E-01  8.52161486E-01  1.00000000E+00
  1.00000000E+00  1.00000000E+00  1.00000000E+00  2.54938145E-02  1.90373109E-01
  8.52161486E-01  1.00000000E+00  1.00000000E+00  1.00000000E+00  1.00000000E+00
  2.54938145E-02  1.90373109E-01  8.52161486E-01  1.00000000E+00  1.00000000E+00
  1.00000000E+00  1.00000000E+00  2.54938145E-02  1.90373109E-01  8.52161486E-01
  1.00000000E+00  1.00000000E+00  1.00000000E+00  1.00000000E+00  2.54938145E-02
  1.90373109E-01  8.52161486E-01  1.00000000E+00  1.00000000E+00  1.00000000E+00
  1.00000000E+00  7.38000247E-04  5.71800191E-03  2.94950099E-02  1.17286039E-01
  3.62949121E-01  5.84149195E-01  1.34176973E-01  6.24249876E-01  2.91755942E-01
  1.00000000E+00  1.00000000E+00  1.00000000E+00  1.00000000E+00  1.00000000E+00
  3.66556935E-03  2.83679194E-02  1.24756603E-01  3.39654631E-01  7.47585963E-01
 -1.57224381E+00  9.92388882E-01  1.00000000E+00  1.00000000E+00  1.00000000E+00
  1.00000000E+00
P(S=P) Contraction coefficients            R   N=         126
  0.00000000E+00  0.00000000E+00  0.00000000E+00  0.00000000E+00  0.00000000E+00
  0.00000000E+00  4.02486927E-02  2.37593957E-01  8.15853851E-01  1.00000000E+00
  1.00000000E+00  1.00000000E+00  0.00000000E+00  0.00000000E+00  0.00000000E+00
  0.00000000E+00  0.00000000E+00  0.00000000E+00  0.00000000E+00  4.02486927E-02
  2.37593957E-01  8.15853851E-01  1.00000000E+00  1.00000000E+00  1.00000000E+00
  0.00000000E+00  0.00000000E+00  0.00000000E+00  0.00000000E+00  0.00000000E+00
  0.00000000E+00  0.00000000E+00  4.02486927E-02  2.37593957E-01  8.15853851E-01
  1.00000000E+00  1.00000000E+00  1.00000000E+00  0.00000000E+00  0.00000000E+00
  0.00000000E+00  0.00000000E+00  0.00000000E+00  0.00000000E+00  0.00000000E+00
  4.02486927E-02  2.37593957E-01  8.15853851E-01  1.00000000E+00  1.00000000E+00
  1.00000000E+00  0.00000000E+00  0.00000000E+00  0.00000000E+00  0.00000000E+00
  0.00000000E+00  0.00000000E+00  0.00000000E+00  0.00000000E+00  0.00000000E+00
  0.00000000E+00  0.00000000E+00  0.00000000E+00  0.00000000E+00  0.00000000E+00
  0.00000000E+00  0.00000000E+00  0.00000000E+00  0.00000000E+00  0.00000000E+00
  0.00000000E+00  0.00000000E+00  0.00000000E+00  0.00000000E+00  0.00000000E+00
  0.00000000E+00  0.00000000E+00  0.00000000E+00  0.00000000E+00  0.00000000E+00
  0.00000000E+00  0.00000000E+00  0.00000000E+00  0.00000000E+00  0.00000000E+00
  0.00000000E+00  0.00000000E+00  0.00000000E+00  0.00000000E+00  0.00000000E+00
  0.00000000E+00  0.00000000E+00  0.00000000E+00  0.00000000E+00  0.00000000E+00
  0.00000000E+00  0.00000000E+00  0.00000000E+00  0.00000000E+00  0.00000000E+00
  0.00000000E+00  0.00000000E+00  0.00000000E+00  0.00000000E+00  0.00000000E+00
  0.00000000E+00  0.00000000E+00  0.00000000E+00  0.00000000E+00  0.00000000E+00
  0.00000000E+00  0.00000000E+00  0.00000000E+00  0.00000000E+00  1.00000000E+00
  0.00000000E+00  0.00000000E+00  0.00000000E+00  0.00000000E+00  0.00000000E+00
  0.00000000E+00  0.00000000E+00  0.00000000E+00  0.00000000E+00  0.00000000E+00
  0.00000000E+00
Coordinates of each shell                  R   N=         216
  8.90026160E-01  3.31380238E+00  7.87227890E-02  8.90026160E-01  3.31380238E+00
  7.87227890E-02  8.90026160E-01  3.31380238E+00  7.87227890E-02  8.90026160E-01
  3.31380238E+00  7.87227890E-02  8.90026160E-01  3.31380238E+00  7.87227890E-02
  8.90026160E-01  3.31380238E+00  7.87227890E-02  1.36280287E-02  6.62452467E-01
 -6.14086123E-01  1.36280287E-02  6.62452467E-01 -6.14086123E-01  1.36280287E-02
  6.62452467E-01 -6.14086123E-01  1.36280287E-02  6.62452467E-01 -6.14086123E-01
  1.36280287E-02  6.62452467E-01 -6.14086123E-01  1.36280287E-02  6.62452467E-01
 -6.14086123E-01 -2.27948580E+00 -1.81152143E-01  7.99008679E-01 -2.27948580E+00
 -1.81152143E-01  7.99008679E-01 -2.27948580E+00 -1.81152143E-01  7.99008679E-01
 -2.27948580E+00 -1.81152143E-01  7.99008679E-01 -2.27948580E+00 -1.81152143E-01
  7.99008679E-01 -2.27948580E+00 -1.81152143E-01  7.99008679E-01 -4.40081814E+00
 -9.33571478E-01 -3.16257720E-01 -4.40081814E+00 -9.33571478E-01 -3.16257720E-01
 -4.40081814E+00 -9.33571478E-01 -3.16257720E-01 -4.40081814E+00 -9.33571478E-01
 -3.16257720E-01 -4.40081814E+00 -9.33571478E-01 -3.16257720E-01 -4.40081814E+00
 -9.33571478E-01 -3.16257720E-01 -4.57675062E+00 -1.03041100E+00 -2.26577337E+00
 -4.57675062E+00 -1.03041100E+00 -2.26577337E+00 -4.57675062E+00 -1.03041100E+00
 -2.26577337E+00 -4.57675062E+00 -1.03041100E+00 -2.26577337E+00 -4.57675062E+00
 -1.03041100E+00 -2.26577337E+00  2.60149712E+00  3.81872987E+00 -9.54316119E-01
  2.60149712E+00  3.81872987E+00 -9.54316119E-01  2.60149712E+00  3.81872987E+00
 -9.54316119E-01  2.60149712E+00  3.81872987E+00 -9.54316119E-01  2.60149712E+00
  3.81872987E+00 -9.54316119E-01 -6.13275839E+00 -1.51409124E+00  8.50897224E-01
 -6.13275839E+00 -1.51409124E+00  8.50897224E-01 -6.13275839E+00 -1.51409124E+00
  8.50897224E-01 -6.13275839E+00 -1.51409124E+00  8.50897224E-01 -6.13275839E+00
 -1.51409124E+00  8.50897224E-01 -2.13547567E+00 -1.15459042E-01  2.86850585E+00
 -2.13547567E+00 -1.15459042E-01  2.86850585E+00 -2.13547567E+00 -1.15459042E-01
  2.86850585E+00 -2.13547567E+00 -1.15459042E-01  2.86850585E+00 -2.13547567E+00
 -1.15459042E-01  2.86850585E+00 -2.87890064E-01  4.90602443E-01 -2.64035283E+00
 -2.87890064E-01  4.90602443E-01 -2.64035283E+00 -2.87890064E-01  4.90602443E-01
 -2.64035283E+00 -2.87890064E-01  4.90602443E-01 -2.64035283E+00 -2.87890064E-01
  4.90602443E-01 -2.64035283E+00  1.27748528E+00  3.45794877E+00  2.10144814E+00
  1.27748528E+00  3.45794877E+00  2.10144814E+00  1.27748528E+00  3.45794877E+00
  2.10144814E+00  1.27748528E+00  3.45794877E+00  2.10144814E+00  1.27748528E+00
  3.45794877E+00  2.10144814E+00 -5.97209072E-01  4.66835819E+00 -4.00836454E-01
 -5.97209072E-01  4.66835819E+00 -4.00836454E-01 -5.97209072E-01  4.66835819E+00
 -4.00836454E-01 -5.97209072E-01  4.66835819E+00 -4.00836454E-01 -5.97209072E-01
  4.66835819E+00 -4.00836454E-01  2.61829412E+00 -1.58499208E+00  4.44765772E-02
  2.61829412E+00 -1.58499208E+00  4.44765772E-02  2.61829412E+00 -1.58499208E+00
  4.44765772E-02  2.61829412E+00 -1.58499208E+00  4.44765772E-02  2.61829412E+00
 -1.58499208E+00  4.44765772E-02  2.61829412E+00 -1.58499208E+00  4.44765772E-02
  2.61829412E+00 -1.58499208E+00  4.44765772E-02  2.61829412E+00 -1.58499208E+00
  4.44765772E-02  2.61829412E+00 -1.58499208E+00  4.44765772E-02  2.61829412E+00
 -1.58499208E+00  4.44765772E-02  2.61829412E+00 -1.58499208E+00  4.44765772E-02
  2.61829412E+00 -1.58499208E+00  4.44765772E-02  2.61829412E+00 -1.58499208E+00
  4.44765772E-02
Constraint Structure                       R   N=          36
  8.90026160E-01  3.31380238E+00  7.87227890E-02  1.36280287E-02  6.62452467E-01
 -6.14086123E-01 -2.27948580E+00 -1.81152143E-01  7.99008679E-01 -4.40081814E+00
 -9.33571478E-01 -3.16257720E-01 -4.57675062E+00 -1.03041100E+00 -2.26577337E+00
  2.60149712E+00  3.81872987E+00 -9.54316119E-01 -6.13275839E+00 -1.51409124E+00
  8.50897224E-01 -2.13547567E+00 -1.15459042E-01  2.86850585E+00 -2.87890064E-01
  4.90602443E-01 -2.64035283E+00  1.27748528E+00  3.45794877E+00  2.10144814E+00
 -5.97209072E-01  4.66835819E+00 -4.00836454E-01  2.61829412E+00 -1.58499208E+00
  4.44765772E-02
Num ILSW                                   I              100
ILSW                                       I   N=         100
           0           0           0           0           2           0
           0           0           0           0         402          -1
           5           0           0           0           0           0
           0           0           0           0           0           0
           1           0           0           0           0           0
           0           0      100000           0          -1           0
           0           0           0           0           0           0
           0           0           0           1           0           0
           0           0           1           0           0           0
           0           0           4          41           0           0
           0           0           5           0           0           0
           0           0           0           0           0           0
           0           0           0           0           0           0
           0           0           0           0           0           0
           0           0           0           0           0           0
           0           0           0           0           0           0
           0           0           0           0
Num RLSW                                   I               41
RLSW                                       R   N=          41
  8.00000000E-01  7.20000000E-01  1.00000000E+00  8.10000000E-01  2.00000000E-01
  0.00000000E+00  0.00000000E+00  1.00000000E+00  0.00000000E+00  0.00000000E+00
  0.00000000E+00  0.00000000E+00  1.00000000E+00  0.00000000E+00  0.00000000E+00
  0.00000000E+00  0.00000000E+00  1.00000000E+00  0.00000000E+00  0.00000000E+00
  0.00000000E+00  0.00000000E+00  1.00000000E+00  0.00000000E+00  0.00000000E+00
  0.00000000E+00  0.00000000E+00  1.00000000E+00  0.00000000E+00  0.00000000E+00
  0.00000000E+00  0.00000000E+00  0.00000000E+00  0.00000000E+00  0.00000000E+00
  0.00000000E+00  0.00000000E+00  0.00000000E+00  1.00000000E+00  1.00000000E+00
  0.00000000E+00
MxBond                                     I                4
NBond                                      I   N=          12
           4           4           3           3           1           1
           1           1           1           1           1           1
IBond                                      I   N=          48
           2           6          10          11           1           3
           9          12           2           4           8           0
           3           5           7           0           4           0
           0           0           1           0           0           0
           4           0           0           0           3           0
           0           0           2           0           0           0
           1           0           0           0           1           0
           0           0           2           0           0           0
RBond                                      R   N=          48
  1.00000000E+00  1.00000000E+00  1.00000000E+00  1.00000000E+00  1.00000000E+00
  1.00000000E+00  1.00000000E+00  1.00000000E+00  1.00000000E+00  2.00000000E+00
  1.00000000E+00  0.00000000E+00  2.00000000E+00  1.00000000E+00  1.00000000E+00
  0.00000000E+00  1.00000000E+00  0.00000000E+00  0.00000000E+00  0.00000000E+00
  1.00000000E+00  0.00000000E+00  0.00000000E+00  0.00000000E+00  1.00000000E+00
  0.00000000E+00  0.00000000E+00  0.00000000E+00  1.00000000E+00  0.00000000E+00
  0.00000000E+00  0.00000000E+00  1.00000000E+00  0.00000000E+00  0.00000000E+00
  0.00000000E+00  1.00000000E+00  0.00000000E+00  0.00000000E+00  0.00000000E+00
  1.00000000E+00  0.00000000E+00  0.00000000E+00  0.00000000E+00  1.00000000E+00
  0.00000000E+00  0.00000000E+00  0.00000000E+00
Virial Ratio                               R      2.003076472526343E+00
SCF Energy                                 R     -6.168918190097010E+02
Total Energy                               R     -6.168918190097010E+02
RMS Density                                R      8.547503163797171E-12
Nuclear derivative order                   I                0
External E-field                           R   N=          35
  0.00000000E+00  0.00000000E+00  0.00000000E+00  0.00000000E+00  0.00000000E+00
  0.00000000E+00  0.00000000E+00  0.00000000E+00  0.00000000E+00  0.00000000E+00
  0.00000000E+00  0.00000000E+00  0.00000000E+00  0.00000000E+00  0.00000000E+00
  0.00000000E+00  0.00000000E+00  0.00000000E+00  0.00000000E+00  0.00000000E+00
  0.00000000E+00  0.00000000E+00  0.00000000E+00  0.00000000E+00  0.00000000E+00
  0.00000000E+00  0.00000000E+00  0.00000000E+00  0.00000000E+00  0.00000000E+00
  0.00000000E+00  0.00000000E+00  0.00000000E+00  0.00000000E+00  0.00000000E+00
IOpCl                                      I                0
IROHF                                      I                0
Alpha Orbital Energies                     R   N=         167
 -1.01534248E+02 -1.02476506E+01 -1.01949514E+01 -1.01851043E+01 -1.01814865E+01
 -9.44867153E+00 -7.21301319E+00 -7.20358703E+00 -7.20342661E+00 -8.67875246E-01
 -7.87271905E-01 -7.42382707E-01 -6.39097013E-01 -5.79283322E-01 -4.82394597E-01
 -4.78371082E-01 -4.43624378E-01 -4.15945258E-01 -4.04182941E-01 -3.75793075E-01
 -3.65154096E-01 -3.06210813E-01 -2.98753269E-01 -2.80770575E-01 -3.26485418E-02
 -7.95885504E-03  5.61664486E-03  7.13270393E-03  2.21015264E-02  2.83716080E-02
  3.83578901E-02  4.12507115E-02  6.30873187E-02  6.52306569E-02  7.26145810E-02
  8.33902199E-02  8.77536795E-02  9.87382471E-02  1.10132218E-01  1.14485983E-01
  1.18360576E-01  1.21860630E-01  1.27835597E-01  1.30667154E-01  1.35264479E-01
  1.42007853E-01  1.49687880E-01  1.55571372E-01  1.60182437E-01  1.64198662E-01
  1.72250091E-01  1.87133073E-01  1.91826136E-01  2.12844033E-01  2.19731129E-01
  2.26746083E-01  2.47877561E-01  2.58909161E-01  2.68971506E-01  2.91853926E-01
  3.41950568E-01  3.56500002E-01  3.91344568E-01  4.25950882E-01  4.30400017E-01
  4.47394182E-01  4.58886540E-01  4.78297966E-01  4.87351778E-01  4.95494944E-01
  5.20708690E-01  5.28300063E-01  5.65483564E-01  5.87706013E-01  5.97989384E-01
  6.23791322E-01  6.35874959E-01  6.49032043E-01  6.57126067E-01  6.62142404E-01
  6.97693912E-01  7.06364349E-01  7.17438495E-01  7.42488288E-01  7.84779128E-01
  8.16366860E-01  8.39210186E-01  8.63228037E-01  8.91422044E-01  9.02239106E-01
  9.42475920E-01  9.59865173E-01  1.00517210E+00  1.03107281E+00  1.06550464E+00
  1.08326337E+00  1.12609046E+00  1.17517264E+00  1.19802612E+00  1.29075266E+00
  1.39334267E+00  1.40873253E+00  1.45111714E+00  1.47983402E+00  1.50484378E+00
  1.53838891E+00  1.56125842E+00  1.58506547E+00  1.59735110E+00  1.62717329E+00
  1.66811219E+00  1.69345688E+00  1.69712352E+00  1.71964983E+00  1.76905338E+00
  1.77671283E+00  1.86545659E+00  1.89362108E+00  1.93213890E+00  1.98245826E+00
  2.01401474E+00  2.06745694E+00  2.12729326E+00  2.16576244E+00  2.19723072E+00
  2.20502939E+00  2.25144077E+00  2.29634847E+00  2.30588454E+00  2.35421737E+00
  2.37490583E+00  2.41946064E+00  2.45859795E+00  2.48938111E+00  2.52575909E+00
  2.56068552E+00  2.56930030E+00  2.59818945E+00  2.61764125E+00  2.64415842E+00
  2.72931032E+00  2.73796133E+00  2.75215223E+00  2.78753329E+00  2.85703867E+00
  2.86222241E+00  2.93108834E+00  3.07383930E+00  3.09379903E+00  3.18371200E+00
  3.40612107E+00  3.49655992E+00  3.71774577E+00  3.79444295E+00  3.79558966E+00
  3.91209421E+00  4.12173575E+00  4.29880397E+00  9.75586362E+00  2.37176356E+01
  2.37909651E+01  2.39452143E+01  2.42573298E+01  2.59304118E+01  2.59731659E+01
  2.64453720E+01  2.15745693E+02
Alpha MO coefficients                      R   N=       27889
  1.85287774E-07 -3.99281003E-07 -2.66523146E-06 -2.10741097E-06 -1.28905496E-06
  3.85957639E-07  1.98279899E-05  1.51005115E-05  9.38511006E-06  1.44126804E-05
  3.68053715E-05  2.93647377E-05  2.25870121E-05 -1.67325595E-03 -1.50170231E-04
  5.07086612E-04  3.87467069E-05  7.53398721E-06 -3.24680406E-06 -4.67632280E-06
  1.30311241E-05  4.49999357E-07  1.48723481E-06 -3.09048595E-06  1.21574317E-05
 -1.19244091E-05  5.28421234E-06 -1.52125934E-05 -1.38944016E-05  1.92140544E-05
 -1.92796706E-05  1.71079249E-04  1.28830411E-04 -1.21170624E-04 -7.47901643E-06
  3.72794731E-03 -4.78869858E-04  4.59494475E-04  8.25799401E-04  9.58870175E-06
 -1.40617386E-06  3.32252699E-06 -2.58215412E-06  7.77630493E-06 -6.17400824E-07
  1.79991001E-06  4.13860643E-06 -2.55728861E-06 -4.18407748E-06 -8.85084059E-06
 -2.45835945E-05  9.76728076E-06  2.46006994E-05  2.20376995E-05  1.45044140E-05
 -1.01961735E-05 -6.17648480E-05 -1.09201086E-03 -1.21370417E-03 -3.84708754E-04
 -1.12363254E-04  6.32042523E-06  5.84468535E-06 -5.86310435E-06  8.61643963E-07
 -4.19910583E-06  2.70994529E-07 -8.19356768E-07 -1.64080310E-06  6.64860596E-07
  6.45863072E-07  8.44082022E-06  8.25539034E-06 -2.27399790E-06  3.27704620E-06
 -6.92954094E-05 -8.30760241E-05 -1.90444793E-05  6.29934142E-05 -1.70636046E-03
 -3.39890159E-04 -1.80237155E-04 -1.27149735E-04 -5.66059827E-06 -1.77165598E-06
 -3.68976708E-06 -1.99533006E-06 -1.79625783E-06 -2.71615838E-06  3.86428835E-05
  6.57489132E-05  5.00922784E-05  6.73276194E-06 -8.12244036E-08  7.26198046E-06
  1.23225055E-05 -8.40693339E-05  7.91994418E-05  2.26774986E-04  8.26945705E-06
  1.32537686E-05 -1.10875798E-05  2.10303535E-06 -1.96025693E-05 -4.43796211E-05
 -1.19798286E-04 -1.16255156E-06 -3.91439114E-07  1.15541380E-06  5.96963767E-06
 -3.41346856E-05  6.18635990E-05  1.44240799E-04 -1.10530307E-05  1.83458652E-06
  1.31281577E-05 -1.32954698E-06 -6.09263197E-05 -1.19633294E-04  1.20905482E-04
 -6.55687663E-06  1.97829784E-06 -1.59637855E-05  1.01744726E-05 -6.38776010E-05
 -1.82113963E-05  7.70233146E-05 -4.65643564E-06  1.23776585E-05  1.53202853E-05
 -7.82754055E-06  3.91751556E-05 -1.37349369E-04 -3.10003163E-04  5.05703783E-07
 -5.11181968E-06 -6.18466432E-07  4.11609656E-01  6.54076186E-01  1.50039041E-02