(R)-3-chloro-1-butene tau=120                                           
SP        RB3LYP                                                      6-311++G(d,p)       
Number of atoms                            I               12
Info1-9                                    I   N=           9
          26          26           0           0           0         110
           1          18        -502
Full Title                                 C   N=           3
(R)-3-chloro-1-butene tau=120       
Route                                      C   N=           7
#P B3LYP/6-311++G** scf(conver=11) int=ultrafine polar=optro
t cphf(rdfreq,conver=11)
Charge                                     I                0
Multiplicity                               I                1
Number of electrons                        I               48
Number of alpha electrons                  I               24
Number of beta electrons                   I               24
Number of basis functions                  I              167
Number of independent functions            I              167
Number of point charges in /Mol/           I                0
Number of translation vectors              I                0
Atomic numbers                             I   N=          12
           6           6           6           6           1           1
           1           1           1           1           1          17
Nuclear charges                            R   N=          12
  6.00000000E+00  6.00000000E+00  6.00000000E+00  6.00000000E+00  1.00000000E+00
  1.00000000E+00  1.00000000E+00  1.00000000E+00  1.00000000E+00  1.00000000E+00
  1.00000000E+00  1.70000000E+01
Current cartesian coordinates              R   N=          36
  8.85945534E-01  3.31468430E+00  7.31926218E-02  1.07106325E-02  6.61392232E-01
 -6.16000703E-01 -2.28000502E+00 -1.83471168E-01  7.94078393E-01 -4.40644098E+00
 -9.40257223E-01 -2.92656562E-01 -4.59180528E+00 -1.04396043E+00 -2.37558695E+00
  2.59171251E+00  3.81937930E+00 -9.60404690E-01 -6.04910626E+00 -1.49247944E+00
  8.09808246E-01 -2.12360884E+00 -1.11414284E-01  2.98374246E+00 -2.91106040E-01
  4.89102750E-01 -2.62267585E+00  1.27847981E+00  3.46199011E+00  2.10436534E+00
 -6.02129727E-01  4.66575321E+00 -4.04019805E-01  2.61919428E+00 -1.58249765E+00
  4.19463970E-02
Number of symbols in /Mol/                 I                0
Force Field                                I                0
Atom Types                                 C   N=          12
                                                            
                                                            
                        
Int Atom Types                             I   N=          12
           0           0           0           0           0           0
           0           0           0           0           0           0
MM charges                                 R   N=          12
  0.00000000E+00  0.00000000E+00  0.00000000E+00  0.00000000E+00  0.00000000E+00
  0.00000000E+00  0.00000000E+00  0.00000000E+00  0.00000000E+00  0.00000000E+00
  0.00000000E+00  0.00000000E+00
Integer atomic weights                     I   N=          12
          12          12          12          12           1           1
           1           1           1           1           1          35
Real atomic weights                        R   N=          12
  1.20000000E+01  1.20000000E+01  1.20000000E+01  1.20000000E+01  1.00782504E+00
  1.00782504E+00  1.00782504E+00  1.00782504E+00  1.00782504E+00  1.00782504E+00
  1.00782504E+00  3.49688527E+01
Atom fragment info                         I   N=          12
           0           0           0           0           0           0
           0           0           0           0           0           0
Atom residue num                           I   N=          12
           0           0           0           0           0           0
           0           0           0           0           0           0
Nuclear spins                              I   N=          12
           0           0           0           0           1           1
           1           1           1           1           1           3
Nuclear ZEff                               R   N=          12
 -3.60000000E+00 -3.60000000E+00 -3.60000000E+00 -3.60000000E+00 -1.00000000E+00
 -1.00000000E+00 -1.00000000E+00 -1.00000000E+00 -1.00000000E+00 -1.00000000E+00
 -1.00000000E+00 -1.42400000E+01
Nuclear ZNuc                               R   N=          12
  6.00000000E+00  6.00000000E+00  6.00000000E+00  6.00000000E+00  1.00000000E+00
  1.00000000E+00  1.00000000E+00  1.00000000E+00  1.00000000E+00  1.00000000E+00
  1.00000000E+00  1.70000000E+01
Nuclear QMom                               R   N=          12
  0.00000000E+00  0.00000000E+00  0.00000000E+00  0.00000000E+00  0.00000000E+00
  0.00000000E+00  0.00000000E+00  0.00000000E+00  0.00000000E+00  0.00000000E+00
  0.00000000E+00 -8.16500000E+00
Nuclear GFac                               R   N=          12
  0.00000000E+00  0.00000000E+00  0.00000000E+00  0.00000000E+00  2.79284600E+00
  2.79284600E+00  2.79284600E+00  2.79284600E+00  2.79284600E+00  2.79284600E+00
  2.79284600E+00  8.21874000E-01
MicOpt                                     I   N=          12
          -1          -1          -1          -1          -1          -1
          -1          -1          -1          -1          -1          -1
Number of residues                         I                0
Number of secondary structures             I                0
SymInf integers                            I   N=          26
           1           1           1           1           1           0
           0           0           0           0           0           0
           0           0           0           0           0           0
           0           0           0           0           0           0
           0           0
RotTr to input orientation                 R   N=          12
  1.00000000E+00  3.03205041E-05  0.00000000E+00 -3.03205041E-05  1.00000000E+00
  0.00000000E+00  0.00000000E+00  0.00000000E+00  1.00000000E+00  3.66595059E-05
  1.42922350E-05  1.30559801E-03
Number of contracted shells                I               72
Number of primitive shells                 I              126
Pure/Cartesian d shells                    I                0
Pure/Cartesian f shells                    I                0
Highest angular momentum                   I                2
Largest degree of contraction              I                6
Shell types                                I   N=          72
           0          -1          -1          -1          -1          -2
           0          -1          -1          -1          -1          -2
           0          -1          -1          -1          -1          -2
           0          -1          -1          -1          -1          -2
           0           0           0           0           1           0
           0           0           0           1           0           0
           0           0           1           0           0           0
           0           1           0           0           0           0
           1           0           0           0           0           1
           0           0           0           0           1           0
           0           0           0           0           0          -1
           1           1           1           1           1          -2
Number of primitives per shell             I   N=          72
           6           3           1           1           1           1
           6           3           1           1           1           1
           6           3           1           1           1           1
           6           3           1           1           1           1
           3           1           1           1           1           3
           1           1           1           1           3           1
           1           1           1           3           1           1
           1           1           3           1           1           1
           1           3           1           1           1           1
           3           1           1           1           1           6
           3           1           1           1           1           1
           5           2           1           1           1           1
Shell to atom map                          I   N=          72
           1           1           1           1           1           1
           2           2           2           2           2           2
           3           3           3           3           3           3
           4           4           4           4           4           4
           5           5           5           5           5           6
           6           6           6           6           7           7
           7           7           7           8           8           8
           8           8           9           9           9           9
           9          10          10          10          10          10
          11          11          11          11          11          12
          12          12          12          12          12          12
          12          12          12          12          12          12
Primitive exponents                        R   N=         126
  4.56324000E+03  6.82024000E+02  1.54973000E+02  4.44553000E+01  1.30290000E+01
  1.82773000E+00  2.09642000E+01  4.80331000E+00  1.45933000E+00  4.83456000E-01
  1.45585000E-01  4.38000000E-02  6.26000000E-01  4.56324000E+03  6.82024000E+02
  1.54973000E+02  4.44553000E+01  1.30290000E+01  1.82773000E+00  2.09642000E+01
  4.80331000E+00  1.45933000E+00  4.83456000E-01  1.45585000E-01  4.38000000E-02
  6.26000000E-01  4.56324000E+03  6.82024000E+02  1.54973000E+02  4.44553000E+01
  1.30290000E+01  1.82773000E+00  2.09642000E+01  4.80331000E+00  1.45933000E+00
  4.83456000E-01  1.45585000E-01  4.38000000E-02  6.26000000E-01  4.56324000E+03
  6.82024000E+02  1.54973000E+02  4.44553000E+01  1.30290000E+01  1.82773000E+00
  2.09642000E+01  4.80331000E+00  1.45933000E+00  4.83456000E-01  1.45585000E-01
  4.38000000E-02  6.26000000E-01  3.38650000E+01  5.09479000E+00  1.15879000E+00
  3.25840000E-01  1.02741000E-01  3.60000000E-02  7.50000000E-01  3.38650000E+01
  5.09479000E+00  1.15879000E+00  3.25840000E-01  1.02741000E-01  3.60000000E-02
  7.50000000E-01  3.38650000E+01  5.09479000E+00  1.15879000E+00  3.25840000E-01
  1.02741000E-01  3.60000000E-02  7.50000000E-01  3.38650000E+01  5.09479000E+00
  1.15879000E+00  3.25840000E-01  1.02741000E-01  3.60000000E-02  7.50000000E-01
  3.38650000E+01  5.09479000E+00  1.15879000E+00  3.25840000E-01  1.02741000E-01
  3.60000000E-02  7.50000000E-01  3.38650000E+01  5.09479000E+00  1.15879000E+00
  3.25840000E-01  1.02741000E-01  3.60000000E-02  7.50000000E-01  3.38650000E+01
  5.09479000E+00  1.15879000E+00  3.25840000E-01  1.02741000E-01  3.60000000E-02
  7.50000000E-01  1.05819000E+05  1.58720000E+04  3.61965000E+03  1.03080000E+03
  3.39908000E+02  1.24538000E+02  1.24538000E+02  4.95135000E+01  2.08056000E+01
  6.58346000E+00  2.56468000E+00  5.59763000E-01  1.83273000E-01  4.83000000E-02
  5.89776000E+02  1.39849000E+02  4.51413000E+01  1.68733000E+01  2.77152000E+00
  6.74110000E+00  2.77152000E+00  1.02387000E+00  3.81368000E-01  1.09437000E-01
  7.50000000E-01
Contraction coefficients                   R   N=         126
  1.96665025E-03  1.52306019E-02  7.61269097E-02  2.60801033E-01  6.16462078E-01
  2.21006028E-01  1.14660081E-01  9.19999648E-01 -3.03068213E-03  1.00000000E+00
  1.00000000E+00  1.00000000E+00  1.00000000E+00  1.96665025E-03  1.52306019E-02
  7.61269097E-02  2.60801033E-01  6.16462078E-01  2.21006028E-01  1.14660081E-01
  9.19999648E-01 -3.03068213E-03  1.00000000E+00  1.00000000E+00  1.00000000E+00
  1.00000000E+00  1.96665025E-03  1.52306019E-02  7.61269097E-02  2.60801033E-01
  6.16462078E-01  2.21006028E-01  1.14660081E-01  9.19999648E-01 -3.03068213E-03
  1.00000000E+00  1.00000000E+00  1.00000000E+00  1.00000000E+00  1.96665025E-03
  1.52306019E-02  7.61269097E-02  2.60801033E-01  6.16462078E-01  2.21006028E-01
  1.14660081E-01  9.19999648E-01 -3.03068213E-03  1.00000000E+00  1.00000000E+00
  1.00000000E+00  1.00000000E+00  2.54938145E-02  1.90373109E-01  8.52161486E-01
  1.00000000E+00  1.00000000E+00  1.00000000E+00  1.00000000E+00  2.54938145E-02
  1.90373109E-01  8.52161486E-01  1.00000000E+00  1.00000000E+00  1.00000000E+00
  1.00000000E+00  2.54938145E-02  1.90373109E-01  8.52161486E-01  1.00000000E+00
  1.00000000E+00  1.00000000E+00  1.00000000E+00  2.54938145E-02  1.90373109E-01
  8.52161486E-01  1.00000000E+00  1.00000000E+00  1.00000000E+00  1.00000000E+00
  2.54938145E-02  1.90373109E-01  8.52161486E-01  1.00000000E+00  1.00000000E+00
  1.00000000E+00  1.00000000E+00  2.54938145E-02  1.90373109E-01  8.52161486E-01
  1.00000000E+00  1.00000000E+00  1.00000000E+00  1.00000000E+00  2.54938145E-02
  1.90373109E-01  8.52161486E-01  1.00000000E+00  1.00000000E+00  1.00000000E+00
  1.00000000E+00  7.38000247E-04  5.71800191E-03  2.94950099E-02  1.17286039E-01
  3.62949121E-01  5.84149195E-01  1.34176973E-01  6.24249876E-01  2.91755942E-01
  1.00000000E+00  1.00000000E+00  1.00000000E+00  1.00000000E+00  1.00000000E+00
  3.66556935E-03  2.83679194E-02  1.24756603E-01  3.39654631E-01  7.47585963E-01
 -1.57224381E+00  9.92388882E-01  1.00000000E+00  1.00000000E+00  1.00000000E+00
  1.00000000E+00
P(S=P) Contraction coefficients            R   N=         126
  0.00000000E+00  0.00000000E+00  0.00000000E+00  0.00000000E+00  0.00000000E+00
  0.00000000E+00  4.02486927E-02  2.37593957E-01  8.15853851E-01  1.00000000E+00
  1.00000000E+00  1.00000000E+00  0.00000000E+00  0.00000000E+00  0.00000000E+00
  0.00000000E+00  0.00000000E+00  0.00000000E+00  0.00000000E+00  4.02486927E-02
  2.37593957E-01  8.15853851E-01  1.00000000E+00  1.00000000E+00  1.00000000E+00
  0.00000000E+00  0.00000000E+00  0.00000000E+00  0.00000000E+00  0.00000000E+00
  0.00000000E+00  0.00000000E+00  4.02486927E-02  2.37593957E-01  8.15853851E-01
  1.00000000E+00  1.00000000E+00  1.00000000E+00  0.00000000E+00  0.00000000E+00
  0.00000000E+00  0.00000000E+00  0.00000000E+00  0.00000000E+00  0.00000000E+00
  4.02486927E-02  2.37593957E-01  8.15853851E-01  1.00000000E+00  1.00000000E+00
  1.00000000E+00  0.00000000E+00  0.00000000E+00  0.00000000E+00  0.00000000E+00
  0.00000000E+00  0.00000000E+00  0.00000000E+00  0.00000000E+00  0.00000000E+00
  0.00000000E+00  0.00000000E+00  0.00000000E+00  0.00000000E+00  0.00000000E+00
  0.00000000E+00  0.00000000E+00  0.00000000E+00  0.00000000E+00  0.00000000E+00
  0.00000000E+00  0.00000000E+00  0.00000000E+00  0.00000000E+00  0.00000000E+00
  0.00000000E+00  0.00000000E+00  0.00000000E+00  0.00000000E+00  0.00000000E+00
  0.00000000E+00  0.00000000E+00  0.00000000E+00  0.00000000E+00  0.00000000E+00
  0.00000000E+00  0.00000000E+00  0.00000000E+00  0.00000000E+00  0.00000000E+00
  0.00000000E+00  0.00000000E+00  0.00000000E+00  0.00000000E+00  0.00000000E+00
  0.00000000E+00  0.00000000E+00  0.00000000E+00  0.00000000E+00  0.00000000E+00
  0.00000000E+00  0.00000000E+00  0.00000000E+00  0.00000000E+00  0.00000000E+00
  0.00000000E+00  0.00000000E+00  0.00000000E+00  0.00000000E+00  0.00000000E+00
  0.00000000E+00  0.00000000E+00  0.00000000E+00  0.00000000E+00  1.00000000E+00
  0.00000000E+00  0.00000000E+00  0.00000000E+00  0.00000000E+00  0.00000000E+00
  0.00000000E+00  0.00000000E+00  0.00000000E+00  0.00000000E+00  0.00000000E+00
  0.00000000E+00
Coordinates of each shell                  R   N=         216
  8.85945534E-01  3.31468430E+00  7.31926218E-02  8.85945534E-01  3.31468430E+00
  7.31926218E-02  8.85945534E-01  3.31468430E+00  7.31926218E-02  8.85945534E-01
  3.31468430E+00  7.31926218E-02  8.85945534E-01  3.31468430E+00  7.31926218E-02
  8.85945534E-01  3.31468430E+00  7.31926218E-02  1.07106325E-02  6.61392232E-01
 -6.16000703E-01  1.07106325E-02  6.61392232E-01 -6.16000703E-01  1.07106325E-02
  6.61392232E-01 -6.16000703E-01  1.07106325E-02  6.61392232E-01 -6.16000703E-01
  1.07106325E-02  6.61392232E-01 -6.16000703E-01  1.07106325E-02  6.61392232E-01
 -6.16000703E-01 -2.28000502E+00 -1.83471168E-01  7.94078393E-01 -2.28000502E+00
 -1.83471168E-01  7.94078393E-01 -2.28000502E+00 -1.83471168E-01  7.94078393E-01
 -2.28000502E+00 -1.83471168E-01  7.94078393E-01 -2.28000502E+00 -1.83471168E-01
  7.94078393E-01 -2.28000502E+00 -1.83471168E-01  7.94078393E-01 -4.40644098E+00
 -9.40257223E-01 -2.92656562E-01 -4.40644098E+00 -9.40257223E-01 -2.92656562E-01
 -4.40644098E+00 -9.40257223E-01 -2.92656562E-01 -4.40644098E+00 -9.40257223E-01
 -2.92656562E-01 -4.40644098E+00 -9.40257223E-01 -2.92656562E-01 -4.40644098E+00
 -9.40257223E-01 -2.92656562E-01 -4.59180528E+00 -1.04396043E+00 -2.37558695E+00
 -4.59180528E+00 -1.04396043E+00 -2.37558695E+00 -4.59180528E+00 -1.04396043E+00
 -2.37558695E+00 -4.59180528E+00 -1.04396043E+00 -2.37558695E+00 -4.59180528E+00
 -1.04396043E+00 -2.37558695E+00  2.59171251E+00  3.81937930E+00 -9.60404690E-01
  2.59171251E+00  3.81937930E+00 -9.60404690E-01  2.59171251E+00  3.81937930E+00
 -9.60404690E-01  2.59171251E+00  3.81937930E+00 -9.60404690E-01  2.59171251E+00
  3.81937930E+00 -9.60404690E-01 -6.04910626E+00 -1.49247944E+00  8.09808246E-01
 -6.04910626E+00 -1.49247944E+00  8.09808246E-01 -6.04910626E+00 -1.49247944E+00
  8.09808246E-01 -6.04910626E+00 -1.49247944E+00  8.09808246E-01 -6.04910626E+00
 -1.49247944E+00  8.09808246E-01 -2.12360884E+00 -1.11414284E-01  2.98374246E+00
 -2.12360884E+00 -1.11414284E-01  2.98374246E+00 -2.12360884E+00 -1.11414284E-01
  2.98374246E+00 -2.12360884E+00 -1.11414284E-01  2.98374246E+00 -2.12360884E+00
 -1.11414284E-01  2.98374246E+00 -2.91106040E-01  4.89102750E-01 -2.62267585E+00
 -2.91106040E-01  4.89102750E-01 -2.62267585E+00 -2.91106040E-01  4.89102750E-01
 -2.62267585E+00 -2.91106040E-01  4.89102750E-01 -2.62267585E+00 -2.91106040E-01
  4.89102750E-01 -2.62267585E+00  1.27847981E+00  3.46199011E+00  2.10436534E+00
  1.27847981E+00  3.46199011E+00  2.10436534E+00  1.27847981E+00  3.46199011E+00
  2.10436534E+00  1.27847981E+00  3.46199011E+00  2.10436534E+00  1.27847981E+00
  3.46199011E+00  2.10436534E+00 -6.02129727E-01  4.66575321E+00 -4.04019805E-01
 -6.02129727E-01  4.66575321E+00 -4.04019805E-01 -6.02129727E-01  4.66575321E+00
 -4.04019805E-01 -6.02129727E-01  4.66575321E+00 -4.04019805E-01 -6.02129727E-01
  4.66575321E+00 -4.04019805E-01  2.61919428E+00 -1.58249765E+00  4.19463970E-02
  2.61919428E+00 -1.58249765E+00  4.19463970E-02  2.61919428E+00 -1.58249765E+00
  4.19463970E-02  2.61919428E+00 -1.58249765E+00  4.19463970E-02  2.61919428E+00
 -1.58249765E+00  4.19463970E-02  2.61919428E+00 -1.58249765E+00  4.19463970E-02
  2.61919428E+00 -1.58249765E+00  4.19463970E-02  2.61919428E+00 -1.58249765E+00
  4.19463970E-02  2.61919428E+00 -1.58249765E+00  4.19463970E-02  2.61919428E+00
 -1.58249765E+00  4.19463970E-02  2.61919428E+00 -1.58249765E+00  4.19463970E-02
  2.61919428E+00 -1.58249765E+00  4.19463970E-02  2.61919428E+00 -1.58249765E+00
  4.19463970E-02
Constraint Structure                       R   N=          36
  8.85945534E-01  3.31468430E+00  7.31926218E-02  1.07106325E-02  6.61392232E-01
 -6.16000703E-01 -2.28000502E+00 -1.83471168E-01  7.94078393E-01 -4.40644098E+00
 -9.40257223E-01 -2.92656562E-01 -4.59180528E+00 -1.04396043E+00 -2.37558695E+00
  2.59171251E+00  3.81937930E+00 -9.60404690E-01 -6.04910626E+00 -1.49247944E+00
  8.09808246E-01 -2.12360884E+00 -1.11414284E-01  2.98374246E+00 -2.91106040E-01
  4.89102750E-01 -2.62267585E+00  1.27847981E+00  3.46199011E+00  2.10436534E+00
 -6.02129727E-01  4.66575321E+00 -4.04019805E-01  2.61919428E+00 -1.58249765E+00
  4.19463970E-02
Num ILSW                                   I              100
ILSW                                       I   N=         100
           0           0           0           0           2           0
           0           0           0           0         402          -1
           5           0           0           0           0           0
           0           0           0           0           0           0
           1           0           0           0           0           0
           0           0      100000           0          -1           0
           0           0           0           0           0           0
           0           0           0           1           0           0
           0           0           1           0           0           0
           0           0           4          41           0           0
           0           0           5           0           0           0
           0           0           0           0           0           0
           0           0           0           0           0           0
           0           0           0           0           0           0
           0           0           0           0           0           0
           0           0           0           0           0           0
           0           0           0           0
Num RLSW                                   I               41
RLSW                                       R   N=          41
  8.00000000E-01  7.20000000E-01  1.00000000E+00  8.10000000E-01  2.00000000E-01
  0.00000000E+00  0.00000000E+00  1.00000000E+00  0.00000000E+00  0.00000000E+00
  0.00000000E+00  0.00000000E+00  1.00000000E+00  0.00000000E+00  0.00000000E+00
  0.00000000E+00  0.00000000E+00  1.00000000E+00  0.00000000E+00  0.00000000E+00
  0.00000000E+00  0.00000000E+00  1.00000000E+00  0.00000000E+00  0.00000000E+00
  0.00000000E+00  0.00000000E+00  1.00000000E+00  0.00000000E+00  0.00000000E+00
  0.00000000E+00  0.00000000E+00  0.00000000E+00  0.00000000E+00  0.00000000E+00
  0.00000000E+00  0.00000000E+00  0.00000000E+00  1.00000000E+00  1.00000000E+00
  0.00000000E+00
MxBond                                     I                4
NBond                                      I   N=          12
           4           4           3           3           1           1
           1           1           1           1           1           1
IBond                                      I   N=          48
           2           6          10          11           1           3
           9          12           2           4           8           0
           3           5           7           0           4           0
           0           0           1           0           0           0
           4           0           0           0           3           0
           0           0           2           0           0           0
           1           0           0           0           1           0
           0           0           2           0           0           0
RBond                                      R   N=          48
  1.00000000E+00  1.00000000E+00  1.00000000E+00  1.00000000E+00  1.00000000E+00
  1.00000000E+00  1.00000000E+00  1.00000000E+00  1.00000000E+00  2.00000000E+00
  1.00000000E+00  0.00000000E+00  2.00000000E+00  1.00000000E+00  1.00000000E+00
  0.00000000E+00  1.00000000E+00  0.00000000E+00  0.00000000E+00  0.00000000E+00
  1.00000000E+00  0.00000000E+00  0.00000000E+00  0.00000000E+00  1.00000000E+00
  0.00000000E+00  0.00000000E+00  0.00000000E+00  1.00000000E+00  0.00000000E+00
  0.00000000E+00  0.00000000E+00  1.00000000E+00  0.00000000E+00  0.00000000E+00
  0.00000000E+00  1.00000000E+00  0.00000000E+00  0.00000000E+00  0.00000000E+00
  1.00000000E+00  0.00000000E+00  0.00000000E+00  0.00000000E+00  1.00000000E+00
  0.00000000E+00  0.00000000E+00  0.00000000E+00
Virial Ratio                               R      2.003207114033609E+00
SCF Energy                                 R     -6.168923219852882E+02
Total Energy                               R     -6.168923219852882E+02
RMS Density                                R      9.073167254483587E-12
Nuclear derivative order                   I                0
External E-field                           R   N=          35
  0.00000000E+00  0.00000000E+00  0.00000000E+00  0.00000000E+00  0.00000000E+00
  0.00000000E+00  0.00000000E+00  0.00000000E+00  0.00000000E+00  0.00000000E+00
  0.00000000E+00  0.00000000E+00  0.00000000E+00  0.00000000E+00  0.00000000E+00
  0.00000000E+00  0.00000000E+00  0.00000000E+00  0.00000000E+00  0.00000000E+00
  0.00000000E+00  0.00000000E+00  0.00000000E+00  0.00000000E+00  0.00000000E+00
  0.00000000E+00  0.00000000E+00  0.00000000E+00  0.00000000E+00  0.00000000E+00
  0.00000000E+00  0.00000000E+00  0.00000000E+00  0.00000000E+00  0.00000000E+00
IOpCl                                      I                0
IROHF                                      I                0
Alpha Orbital Energies                     R   N=         167
 -1.01534247E+02 -1.02471871E+01 -1.02003654E+01 -1.01863810E+01 -1.01815547E+01
 -9.44866326E+00 -7.21301676E+00 -7.20357093E+00 -7.20341560E+00 -8.67823620E-01
 -7.86508868E-01 -7.42422618E-01 -6.40236663E-01 -5.70638678E-01 -4.85463221E-01
 -4.73989698E-01 -4.45248622E-01 -4.16541458E-01 -4.00003149E-01 -3.74395679E-01
 -3.64008207E-01 -3.06544646E-01 -2.98824518E-01 -2.81446483E-01 -3.23538764E-02
 -7.42075796E-03  5.23712531E-03  6.15363395E-03  2.16493246E-02  2.83568735E-02
  3.85496615E-02  4.06963249E-02  6.34790510E-02  6.42109865E-02  7.25625508E-02
  8.26590219E-02  8.73819761E-02  9.87077173E-02  1.08572571E-01  1.14412970E-01
  1.18260309E-01  1.22044261E-01  1.27183383E-01  1.30347797E-01  1.34983512E-01
  1.41250241E-01  1.50198723E-01  1.56325453E-01  1.59901934E-01  1.63656415E-01
  1.69840678E-01  1.87261577E-01  1.90572423E-01  2.11763648E-01  2.19451961E-01
  2.21951591E-01  2.46012629E-01  2.59419839E-01  2.70002955E-01  2.91816893E-01
  3.40833200E-01  3.51566872E-01  3.91822557E-01  4.26362202E-01  4.30497575E-01
  4.47342170E-01  4.56094066E-01  4.77659866E-01  4.87993401E-01  4.95026551E-01
  5.22869901E-01  5.26173323E-01  5.63004176E-01  5.86759053E-01  5.97982633E-01
  6.20479149E-01  6.32245510E-01  6.47694896E-01  6.53256364E-01  6.61947373E-01
  6.87770796E-01  7.04571312E-01  7.31119432E-01  7.39593202E-01  7.85154881E-01
  8.14379077E-01  8.27652374E-01  8.64545936E-01  8.91698541E-01  9.02763141E-01
  9.42777038E-01  9.58826613E-01  1.00440335E+00  1.02968309E+00  1.06349674E+00
  1.08211195E+00  1.12633314E+00  1.17331082E+00  1.19740450E+00  1.29252949E+00
  1.38806392E+00  1.42029834E+00  1.44943566E+00  1.46547371E+00  1.50410810E+00
  1.53939205E+00  1.55763828E+00  1.58414238E+00  1.59799450E+00  1.61959798E+00
  1.66644319E+00  1.68802564E+00  1.69365146E+00  1.72326945E+00  1.76100472E+00
  1.77465263E+00  1.86395481E+00  1.88007820E+00  1.93556106E+00  1.98169888E+00
  2.00897093E+00  2.06500817E+00  2.11787300E+00  2.16238557E+00  2.16695176E+00
  2.19296514E+00  2.24563577E+00  2.29691319E+00  2.30464251E+00  2.34708072E+00
  2.37231158E+00  2.42535890E+00  2.45658148E+00  2.48873908E+00  2.53542069E+00
  2.56263435E+00  2.57432921E+00  2.58703343E+00  2.60808420E+00  2.63544020E+00
  2.72622717E+00  2.73118589E+00  2.74656599E+00  2.77111436E+00  2.84749823E+00
  2.86648289E+00  2.92996987E+00  3.05158862E+00  3.08513750E+00  3.18406447E+00
  3.39670085E+00  3.49938493E+00  3.68316068E+00  3.78950655E+00  3.79893965E+00
  3.87776375E+00  4.11777431E+00  4.28311962E+00  9.75580245E+00  2.36713740E+01
  2.37951981E+01  2.39446859E+01  2.42549742E+01  2.59301777E+01  2.59739406E+01
  2.64452737E+01  2.15745605E+02
Alpha MO coefficients                      R   N=       27889
  1.79913741E-07 -3.85653217E-07 -2.67564422E-06 -2.06244985E-06 -1.28552442E-06
  2.30597879E-07  1.99972167E-05  1.49536856E-05  8.86100421E-06  1.39502932E-05
  3.65119953E-05  2.99433963E-05  2.19418372E-05 -1.67053642E-03 -1.53801509E-04
  5.06854473E-04  3.93548177E-05  7.35406288E-06 -3.42478099E-06 -4.61882833E-06
  1.30524715E-05  5.24384743E-07  1.50476933E-06 -3.14073739E-06  1.20961468E-05
 -1.18953712E-05  5.29060738E-06 -1.46060792E-05 -1.36311168E-05  1.91303005E-05
 -2.01238359E-05  1.70892389E-04  1.29013410E-04 -1.20711808E-04 -7.92946209E-06
  3.74163776E-03 -4.73732513E-04  4.59004228E-04  8.32166670E-04  1.00387656E-05
 -1.17381472E-06  3.37162797E-06 -2.67775816E-06  7.65577997E-06 -7.58586171E-07
  2.18243543E-06  4.32429333E-06 -2.58043385E-06 -4.07230209E-06 -1.12817716E-05
 -2.59356296E-05  9.64929811E-06  2.10048821E-05  2.21529226E-05  1.59984175E-05
 -9.63363655E-06 -6.33409756E-05 -1.03067228E-03 -1.23793614E-03 -3.95246080E-04
 -1.23710920E-04  4.69819075E-06  4.89879062E-06 -5.87337780E-06  1.07545015E-06
 -4.02076961E-06  3.36342862E-07 -9.95436607E-07 -1.73922036E-06  6.73906668E-07
  8.03533550E-07  1.03105942E-05  7.86334639E-06 -2.67961446E-06  2.66063179E-07
 -5.50347422E-05 -8.72987621E-05 -2.06435595E-05  6.40067060E-05 -1.75985452E-03
 -3.57677511E-04 -1.86364971E-04 -1.20470207E-04 -4.73234897E-06 -2.45651556E-06
 -3.74742118E-06 -1.78687734E-06 -1.73156805E-06 -3.15326880E-06  3.34657586E-05
  6.23924854E-05  5.32682517E-05  6.63538708E-06 -6.23126046E-08  6.11184456E-06
  1.22586957E-05 -8.43833604E-05  7.90199204E-05  2.29268139E-04  8.37523161E-06
  1.33117024E-05 -1.11524941E-05  2.26099827E-06 -2.22353127E-05 -5.32058007E-05
 -1.33476630E-04 -1.13128368E-06 -3.23999776E-07  1.43465079E-06  6.67903429E-06
 -2.82537633E-05  5.89235154E-05  1.39028027E-04 -1.10231578E-05  1.51950827E-06
  1.05228908E-05 -1.67832632E-06 -6.20533976E-05 -1.20665215E-04  1.23266672E-04
 -6.52401676E-06  1.83188225E-06 -1.62476088E-05  1.02011586E-05 -6.29051062E-05
 -1.83365274E-05  7.55339674E-05 -4.68356695E-06  1.23030587E-05  1.50311720E-05
 -7.84329258E-06  3.93527847E-05 -1.39294500E-04 -3.11323063E-04  5.50443748E-07
 -5.10736170E-06 -6.02265716E-07  4.11609659E-01  6.54076193E-01  1.50038699E-02