(R)-3-chloro-1-butene tau=120                                           
SP        RB3LYP                                                      6-311++G(d,p)       
Number of atoms                            I               12
Info1-9                                    I   N=           9
          26          26           0           0           0         110
           1          18        -502
Full Title                                 C   N=           3
(R)-3-chloro-1-butene tau=120       
Route                                      C   N=           7
#P B3LYP/6-311++G** scf(conver=11) int=ultrafine polar=optro
t cphf(rdfreq,conver=11)
Charge                                     I                0
Multiplicity                               I                1
Number of electrons                        I               48
Number of alpha electrons                  I               24
Number of beta electrons                   I               24
Number of basis functions                  I              167
Number of independent functions            I              167
Number of point charges in /Mol/           I                0
Number of translation vectors              I                0
Atomic numbers                             I   N=          12
           6           6           6           6           1           1
           1           1           1           1           1          17
Nuclear charges                            R   N=          12
  6.00000000E+00  6.00000000E+00  6.00000000E+00  6.00000000E+00  1.00000000E+00
  1.00000000E+00  1.00000000E+00  1.00000000E+00  1.00000000E+00  1.00000000E+00
  1.00000000E+00  1.70000000E+01
Current cartesian coordinates              R   N=          36
  8.71321578E-01  3.31755580E+00  7.35730890E-02  9.68699894E-03  6.55955302E-01
 -6.11682784E-01 -2.27955069E+00 -1.86250949E-01  8.06712052E-01 -4.38719396E+00
 -1.00362134E+00 -2.95566184E-01 -4.65366635E+00 -8.91179945E-01 -2.33985349E+00
  2.58241609E+00  3.83460909E+00 -9.54156660E-01 -6.08242374E+00 -1.37244740E+00
  8.10871415E-01 -2.14508253E+00 -1.10155985E-01  2.85577632E+00 -2.95656775E-01
  4.64833082E-01 -2.63853317E+00  1.25915035E+00  3.45213722E+00  2.09675631E+00
 -6.21490158E-01  4.66951282E+00 -3.95582207E-01  2.62771585E+00 -1.57347892E+00
  4.27355553E-02
Number of symbols in /Mol/                 I                0
Force Field                                I                0
Atom Types                                 C   N=          12
                                                            
                                                            
                        
Int Atom Types                             I   N=          12
           0           0           0           0           0           0
           0           0           0           0           0           0
MM charges                                 R   N=          12
  0.00000000E+00  0.00000000E+00  0.00000000E+00  0.00000000E+00  0.00000000E+00
  0.00000000E+00  0.00000000E+00  0.00000000E+00  0.00000000E+00  0.00000000E+00
  0.00000000E+00  0.00000000E+00
Integer atomic weights                     I   N=          12
          12          12          12          12           1           1
           1           1           1           1           1          35
Real atomic weights                        R   N=          12
  1.20000000E+01  1.20000000E+01  1.20000000E+01  1.20000000E+01  1.00782504E+00
  1.00782504E+00  1.00782504E+00  1.00782504E+00  1.00782504E+00  1.00782504E+00
  1.00782504E+00  3.49688527E+01
Atom fragment info                         I   N=          12
           0           0           0           0           0           0
           0           0           0           0           0           0
Atom residue num                           I   N=          12
           0           0           0           0           0           0
           0           0           0           0           0           0
Nuclear spins                              I   N=          12
           0           0           0           0           1           1
           1           1           1           1           1           3
Nuclear ZEff                               R   N=          12
 -3.60000000E+00 -3.60000000E+00 -3.60000000E+00 -3.60000000E+00 -1.00000000E+00
 -1.00000000E+00 -1.00000000E+00 -1.00000000E+00 -1.00000000E+00 -1.00000000E+00
 -1.00000000E+00 -1.42400000E+01
Nuclear ZNuc                               R   N=          12
  6.00000000E+00  6.00000000E+00  6.00000000E+00  6.00000000E+00  1.00000000E+00
  1.00000000E+00  1.00000000E+00  1.00000000E+00  1.00000000E+00  1.00000000E+00
  1.00000000E+00  1.70000000E+01
Nuclear QMom                               R   N=          12
  0.00000000E+00  0.00000000E+00  0.00000000E+00  0.00000000E+00  0.00000000E+00
  0.00000000E+00  0.00000000E+00  0.00000000E+00  0.00000000E+00  0.00000000E+00
  0.00000000E+00 -8.16500000E+00
Nuclear GFac                               R   N=          12
  0.00000000E+00  0.00000000E+00  0.00000000E+00  0.00000000E+00  2.79284600E+00
  2.79284600E+00  2.79284600E+00  2.79284600E+00  2.79284600E+00  2.79284600E+00
  2.79284600E+00  8.21874000E-01
MicOpt                                     I   N=          12
          -1          -1          -1          -1          -1          -1
          -1          -1          -1          -1          -1          -1
Number of residues                         I                0
Number of secondary structures             I                0
SymInf integers                            I   N=          26
           1           1           1           1           1           0
           0           0           0           0           0           0
           0           0           0           0           0           0
           0           0           0           0           0           0
           0           0
RotTr to input orientation                 R   N=          12
  9.99989046E-01 -4.68059529E-03  0.00000000E+00  4.68059529E-03  9.99989046E-01
  0.00000000E+00  0.00000000E+00  0.00000000E+00  1.00000000E+00 -1.31686550E-03
  3.41978030E-03  1.95526420E-04
Number of contracted shells                I               72
Number of primitive shells                 I              126
Pure/Cartesian d shells                    I                0
Pure/Cartesian f shells                    I                0
Highest angular momentum                   I                2
Largest degree of contraction              I                6
Shell types                                I   N=          72
           0          -1          -1          -1          -1          -2
           0          -1          -1          -1          -1          -2
           0          -1          -1          -1          -1          -2
           0          -1          -1          -1          -1          -2
           0           0           0           0           1           0
           0           0           0           1           0           0
           0           0           1           0           0           0
           0           1           0           0           0           0
           1           0           0           0           0           1
           0           0           0           0           1           0
           0           0           0           0           0          -1
           1           1           1           1           1          -2
Number of primitives per shell             I   N=          72
           6           3           1           1           1           1
           6           3           1           1           1           1
           6           3           1           1           1           1
           6           3           1           1           1           1
           3           1           1           1           1           3
           1           1           1           1           3           1
           1           1           1           3           1           1
           1           1           3           1           1           1
           1           3           1           1           1           1
           3           1           1           1           1           6
           3           1           1           1           1           1
           5           2           1           1           1           1
Shell to atom map                          I   N=          72
           1           1           1           1           1           1
           2           2           2           2           2           2
           3           3           3           3           3           3
           4           4           4           4           4           4
           5           5           5           5           5           6
           6           6           6           6           7           7
           7           7           7           8           8           8
           8           8           9           9           9           9
           9          10          10          10          10          10
          11          11          11          11          11          12
          12          12          12          12          12          12
          12          12          12          12          12          12
Primitive exponents                        R   N=         126
  4.56324000E+03  6.82024000E+02  1.54973000E+02  4.44553000E+01  1.30290000E+01
  1.82773000E+00  2.09642000E+01  4.80331000E+00  1.45933000E+00  4.83456000E-01
  1.45585000E-01  4.38000000E-02  6.26000000E-01  4.56324000E+03  6.82024000E+02
  1.54973000E+02  4.44553000E+01  1.30290000E+01  1.82773000E+00  2.09642000E+01
  4.80331000E+00  1.45933000E+00  4.83456000E-01  1.45585000E-01  4.38000000E-02
  6.26000000E-01  4.56324000E+03  6.82024000E+02  1.54973000E+02  4.44553000E+01
  1.30290000E+01  1.82773000E+00  2.09642000E+01  4.80331000E+00  1.45933000E+00
  4.83456000E-01  1.45585000E-01  4.38000000E-02  6.26000000E-01  4.56324000E+03
  6.82024000E+02  1.54973000E+02  4.44553000E+01  1.30290000E+01  1.82773000E+00
  2.09642000E+01  4.80331000E+00  1.45933000E+00  4.83456000E-01  1.45585000E-01
  4.38000000E-02  6.26000000E-01  3.38650000E+01  5.09479000E+00  1.15879000E+00
  3.25840000E-01  1.02741000E-01  3.60000000E-02  7.50000000E-01  3.38650000E+01
  5.09479000E+00  1.15879000E+00  3.25840000E-01  1.02741000E-01  3.60000000E-02
  7.50000000E-01  3.38650000E+01  5.09479000E+00  1.15879000E+00  3.25840000E-01
  1.02741000E-01  3.60000000E-02  7.50000000E-01  3.38650000E+01  5.09479000E+00
  1.15879000E+00  3.25840000E-01  1.02741000E-01  3.60000000E-02  7.50000000E-01
  3.38650000E+01  5.09479000E+00  1.15879000E+00  3.25840000E-01  1.02741000E-01
  3.60000000E-02  7.50000000E-01  3.38650000E+01  5.09479000E+00  1.15879000E+00
  3.25840000E-01  1.02741000E-01  3.60000000E-02  7.50000000E-01  3.38650000E+01
  5.09479000E+00  1.15879000E+00  3.25840000E-01  1.02741000E-01  3.60000000E-02
  7.50000000E-01  1.05819000E+05  1.58720000E+04  3.61965000E+03  1.03080000E+03
  3.39908000E+02  1.24538000E+02  1.24538000E+02  4.95135000E+01  2.08056000E+01
  6.58346000E+00  2.56468000E+00  5.59763000E-01  1.83273000E-01  4.83000000E-02
  5.89776000E+02  1.39849000E+02  4.51413000E+01  1.68733000E+01  2.77152000E+00
  6.74110000E+00  2.77152000E+00  1.02387000E+00  3.81368000E-01  1.09437000E-01
  7.50000000E-01
Contraction coefficients                   R   N=         126
  1.96665025E-03  1.52306019E-02  7.61269097E-02  2.60801033E-01  6.16462078E-01
  2.21006028E-01  1.14660081E-01  9.19999648E-01 -3.03068213E-03  1.00000000E+00
  1.00000000E+00  1.00000000E+00  1.00000000E+00  1.96665025E-03  1.52306019E-02
  7.61269097E-02  2.60801033E-01  6.16462078E-01  2.21006028E-01  1.14660081E-01
  9.19999648E-01 -3.03068213E-03  1.00000000E+00  1.00000000E+00  1.00000000E+00
  1.00000000E+00  1.96665025E-03  1.52306019E-02  7.61269097E-02  2.60801033E-01
  6.16462078E-01  2.21006028E-01  1.14660081E-01  9.19999648E-01 -3.03068213E-03
  1.00000000E+00  1.00000000E+00  1.00000000E+00  1.00000000E+00  1.96665025E-03
  1.52306019E-02  7.61269097E-02  2.60801033E-01  6.16462078E-01  2.21006028E-01
  1.14660081E-01  9.19999648E-01 -3.03068213E-03  1.00000000E+00  1.00000000E+00
  1.00000000E+00  1.00000000E+00  2.54938145E-02  1.90373109E-01  8.52161486E-01
  1.00000000E+00  1.00000000E+00  1.00000000E+00  1.00000000E+00  2.54938145E-02
  1.90373109E-01  8.52161486E-01  1.00000000E+00  1.00000000E+00  1.00000000E+00
  1.00000000E+00  2.54938145E-02  1.90373109E-01  8.52161486E-01  1.00000000E+00
  1.00000000E+00  1.00000000E+00  1.00000000E+00  2.54938145E-02  1.90373109E-01
  8.52161486E-01  1.00000000E+00  1.00000000E+00  1.00000000E+00  1.00000000E+00
  2.54938145E-02  1.90373109E-01  8.52161486E-01  1.00000000E+00  1.00000000E+00
  1.00000000E+00  1.00000000E+00  2.54938145E-02  1.90373109E-01  8.52161486E-01
  1.00000000E+00  1.00000000E+00  1.00000000E+00  1.00000000E+00  2.54938145E-02
  1.90373109E-01  8.52161486E-01  1.00000000E+00  1.00000000E+00  1.00000000E+00
  1.00000000E+00  7.38000247E-04  5.71800191E-03  2.94950099E-02  1.17286039E-01
  3.62949121E-01  5.84149195E-01  1.34176973E-01  6.24249876E-01  2.91755942E-01
  1.00000000E+00  1.00000000E+00  1.00000000E+00  1.00000000E+00  1.00000000E+00
  3.66556935E-03  2.83679194E-02  1.24756603E-01  3.39654631E-01  7.47585963E-01
 -1.57224381E+00  9.92388882E-01  1.00000000E+00  1.00000000E+00  1.00000000E+00
  1.00000000E+00
P(S=P) Contraction coefficients            R   N=         126
  0.00000000E+00  0.00000000E+00  0.00000000E+00  0.00000000E+00  0.00000000E+00
  0.00000000E+00  4.02486927E-02  2.37593957E-01  8.15853851E-01  1.00000000E+00
  1.00000000E+00  1.00000000E+00  0.00000000E+00  0.00000000E+00  0.00000000E+00
  0.00000000E+00  0.00000000E+00  0.00000000E+00  0.00000000E+00  4.02486927E-02
  2.37593957E-01  8.15853851E-01  1.00000000E+00  1.00000000E+00  1.00000000E+00
  0.00000000E+00  0.00000000E+00  0.00000000E+00  0.00000000E+00  0.00000000E+00
  0.00000000E+00  0.00000000E+00  4.02486927E-02  2.37593957E-01  8.15853851E-01
  1.00000000E+00  1.00000000E+00  1.00000000E+00  0.00000000E+00  0.00000000E+00
  0.00000000E+00  0.00000000E+00  0.00000000E+00  0.00000000E+00  0.00000000E+00
  4.02486927E-02  2.37593957E-01  8.15853851E-01  1.00000000E+00  1.00000000E+00
  1.00000000E+00  0.00000000E+00  0.00000000E+00  0.00000000E+00  0.00000000E+00
  0.00000000E+00  0.00000000E+00  0.00000000E+00  0.00000000E+00  0.00000000E+00
  0.00000000E+00  0.00000000E+00  0.00000000E+00  0.00000000E+00  0.00000000E+00
  0.00000000E+00  0.00000000E+00  0.00000000E+00  0.00000000E+00  0.00000000E+00
  0.00000000E+00  0.00000000E+00  0.00000000E+00  0.00000000E+00  0.00000000E+00
  0.00000000E+00  0.00000000E+00  0.00000000E+00  0.00000000E+00  0.00000000E+00
  0.00000000E+00  0.00000000E+00  0.00000000E+00  0.00000000E+00  0.00000000E+00
  0.00000000E+00  0.00000000E+00  0.00000000E+00  0.00000000E+00  0.00000000E+00
  0.00000000E+00  0.00000000E+00  0.00000000E+00  0.00000000E+00  0.00000000E+00
  0.00000000E+00  0.00000000E+00  0.00000000E+00  0.00000000E+00  0.00000000E+00
  0.00000000E+00  0.00000000E+00  0.00000000E+00  0.00000000E+00  0.00000000E+00
  0.00000000E+00  0.00000000E+00  0.00000000E+00  0.00000000E+00  0.00000000E+00
  0.00000000E+00  0.00000000E+00  0.00000000E+00  0.00000000E+00  1.00000000E+00
  0.00000000E+00  0.00000000E+00  0.00000000E+00  0.00000000E+00  0.00000000E+00
  0.00000000E+00  0.00000000E+00  0.00000000E+00  0.00000000E+00  0.00000000E+00
  0.00000000E+00
Coordinates of each shell                  R   N=         216
  8.71321578E-01  3.31755580E+00  7.35730890E-02  8.71321578E-01  3.31755580E+00
  7.35730890E-02  8.71321578E-01  3.31755580E+00  7.35730890E-02  8.71321578E-01
  3.31755580E+00  7.35730890E-02  8.71321578E-01  3.31755580E+00  7.35730890E-02
  8.71321578E-01  3.31755580E+00  7.35730890E-02  9.68699894E-03  6.55955302E-01
 -6.11682784E-01  9.68699894E-03  6.55955302E-01 -6.11682784E-01  9.68699894E-03
  6.55955302E-01 -6.11682784E-01  9.68699894E-03  6.55955302E-01 -6.11682784E-01
  9.68699894E-03  6.55955302E-01 -6.11682784E-01  9.68699894E-03  6.55955302E-01
 -6.11682784E-01 -2.27955069E+00 -1.86250949E-01  8.06712052E-01 -2.27955069E+00
 -1.86250949E-01  8.06712052E-01 -2.27955069E+00 -1.86250949E-01  8.06712052E-01
 -2.27955069E+00 -1.86250949E-01  8.06712052E-01 -2.27955069E+00 -1.86250949E-01
  8.06712052E-01 -2.27955069E+00 -1.86250949E-01  8.06712052E-01 -4.38719396E+00
 -1.00362134E+00 -2.95566184E-01 -4.38719396E+00 -1.00362134E+00 -2.95566184E-01
 -4.38719396E+00 -1.00362134E+00 -2.95566184E-01 -4.38719396E+00 -1.00362134E+00
 -2.95566184E-01 -4.38719396E+00 -1.00362134E+00 -2.95566184E-01 -4.38719396E+00
 -1.00362134E+00 -2.95566184E-01 -4.65366635E+00 -8.91179945E-01 -2.33985349E+00
 -4.65366635E+00 -8.91179945E-01 -2.33985349E+00 -4.65366635E+00 -8.91179945E-01
 -2.33985349E+00 -4.65366635E+00 -8.91179945E-01 -2.33985349E+00 -4.65366635E+00
 -8.91179945E-01 -2.33985349E+00  2.58241609E+00  3.83460909E+00 -9.54156660E-01
  2.58241609E+00  3.83460909E+00 -9.54156660E-01  2.58241609E+00  3.83460909E+00
 -9.54156660E-01  2.58241609E+00  3.83460909E+00 -9.54156660E-01  2.58241609E+00
  3.83460909E+00 -9.54156660E-01 -6.08242374E+00 -1.37244740E+00  8.10871415E-01
 -6.08242374E+00 -1.37244740E+00  8.10871415E-01 -6.08242374E+00 -1.37244740E+00
  8.10871415E-01 -6.08242374E+00 -1.37244740E+00  8.10871415E-01 -6.08242374E+00
 -1.37244740E+00  8.10871415E-01 -2.14508253E+00 -1.10155985E-01  2.85577632E+00
 -2.14508253E+00 -1.10155985E-01  2.85577632E+00 -2.14508253E+00 -1.10155985E-01
  2.85577632E+00 -2.14508253E+00 -1.10155985E-01  2.85577632E+00 -2.14508253E+00
 -1.10155985E-01  2.85577632E+00 -2.95656775E-01  4.64833082E-01 -2.63853317E+00
 -2.95656775E-01  4.64833082E-01 -2.63853317E+00 -2.95656775E-01  4.64833082E-01
 -2.63853317E+00 -2.95656775E-01  4.64833082E-01 -2.63853317E+00 -2.95656775E-01
  4.64833082E-01 -2.63853317E+00  1.25915035E+00  3.45213722E+00  2.09675631E+00
  1.25915035E+00  3.45213722E+00  2.09675631E+00  1.25915035E+00  3.45213722E+00
  2.09675631E+00  1.25915035E+00  3.45213722E+00  2.09675631E+00  1.25915035E+00
  3.45213722E+00  2.09675631E+00 -6.21490158E-01  4.66951282E+00 -3.95582207E-01
 -6.21490158E-01  4.66951282E+00 -3.95582207E-01 -6.21490158E-01  4.66951282E+00
 -3.95582207E-01 -6.21490158E-01  4.66951282E+00 -3.95582207E-01 -6.21490158E-01
  4.66951282E+00 -3.95582207E-01  2.62771585E+00 -1.57347892E+00  4.27355553E-02
  2.62771585E+00 -1.57347892E+00  4.27355553E-02  2.62771585E+00 -1.57347892E+00
  4.27355553E-02  2.62771585E+00 -1.57347892E+00  4.27355553E-02  2.62771585E+00
 -1.57347892E+00  4.27355553E-02  2.62771585E+00 -1.57347892E+00  4.27355553E-02
  2.62771585E+00 -1.57347892E+00  4.27355553E-02  2.62771585E+00 -1.57347892E+00
  4.27355553E-02  2.62771585E+00 -1.57347892E+00  4.27355553E-02  2.62771585E+00
 -1.57347892E+00  4.27355553E-02  2.62771585E+00 -1.57347892E+00  4.27355553E-02
  2.62771585E+00 -1.57347892E+00  4.27355553E-02  2.62771585E+00 -1.57347892E+00
  4.27355553E-02
Constraint Structure                       R   N=          36
  8.71321578E-01  3.31755580E+00  7.35730890E-02  9.68699894E-03  6.55955302E-01
 -6.11682784E-01 -2.27955069E+00 -1.86250949E-01  8.06712052E-01 -4.38719396E+00
 -1.00362134E+00 -2.95566184E-01 -4.65366635E+00 -8.91179945E-01 -2.33985349E+00
  2.58241609E+00  3.83460909E+00 -9.54156660E-01 -6.08242374E+00 -1.37244740E+00
  8.10871415E-01 -2.14508253E+00 -1.10155985E-01  2.85577632E+00 -2.95656775E-01
  4.64833082E-01 -2.63853317E+00  1.25915035E+00  3.45213722E+00  2.09675631E+00
 -6.21490158E-01  4.66951282E+00 -3.95582207E-01  2.62771585E+00 -1.57347892E+00
  4.27355553E-02
Num ILSW                                   I              100
ILSW                                       I   N=         100
           0           0           0           0           2           0
           0           0           0           0         402          -1
           5           0           0           0           0           0
           0           0           0           0           0           0
           1           0           0           0           0           0
           0           0      100000           0          -1           0
           0           0           0           0           0           0
           0           0           0           1           0           0
           0           0           1           0           0           0
           0           0           4          41           0           0
           0           0           5           0           0           0
           0           0           0           0           0           0
           0           0           0           0           0           0
           0           0           0           0           0           0
           0           0           0           0           0           0
           0           0           0           0           0           0
           0           0           0           0
Num RLSW                                   I               41
RLSW                                       R   N=          41
  8.00000000E-01  7.20000000E-01  1.00000000E+00  8.10000000E-01  2.00000000E-01
  0.00000000E+00  0.00000000E+00  1.00000000E+00  0.00000000E+00  0.00000000E+00
  0.00000000E+00  0.00000000E+00  1.00000000E+00  0.00000000E+00  0.00000000E+00
  0.00000000E+00  0.00000000E+00  1.00000000E+00  0.00000000E+00  0.00000000E+00
  0.00000000E+00  0.00000000E+00  1.00000000E+00  0.00000000E+00  0.00000000E+00
  0.00000000E+00  0.00000000E+00  1.00000000E+00  0.00000000E+00  0.00000000E+00
  0.00000000E+00  0.00000000E+00  0.00000000E+00  0.00000000E+00  0.00000000E+00
  0.00000000E+00  0.00000000E+00  0.00000000E+00  1.00000000E+00  1.00000000E+00
  0.00000000E+00
MxBond                                     I                4
NBond                                      I   N=          12
           4           4           3           3           1           1
           1           1           1           1           1           1
IBond                                      I   N=          48
           2           6          10          11           1           3
           9          12           2           4           8           0
           3           5           7           0           4           0
           0           0           1           0           0           0
           4           0           0           0           3           0
           0           0           2           0           0           0
           1           0           0           0           1           0
           0           0           2           0           0           0
RBond                                      R   N=          48
  1.00000000E+00  1.00000000E+00  1.00000000E+00  1.00000000E+00  1.00000000E+00
  1.00000000E+00  1.00000000E+00  1.00000000E+00  1.00000000E+00  2.00000000E+00
  1.00000000E+00  0.00000000E+00  2.00000000E+00  1.00000000E+00  1.00000000E+00
  0.00000000E+00  1.00000000E+00  0.00000000E+00  0.00000000E+00  0.00000000E+00
  1.00000000E+00  0.00000000E+00  0.00000000E+00  0.00000000E+00  1.00000000E+00
  0.00000000E+00  0.00000000E+00  0.00000000E+00  1.00000000E+00  0.00000000E+00
  0.00000000E+00  0.00000000E+00  1.00000000E+00  0.00000000E+00  0.00000000E+00
  0.00000000E+00  1.00000000E+00  0.00000000E+00  0.00000000E+00  0.00000000E+00
  1.00000000E+00  0.00000000E+00  0.00000000E+00  0.00000000E+00  1.00000000E+00
  0.00000000E+00  0.00000000E+00  0.00000000E+00
Virial Ratio                               R      2.003076736529224E+00
SCF Energy                                 R     -6.168942509993178E+02
Total Energy                               R     -6.168942509993178E+02
RMS Density                                R      7.878745887350975E-12
Nuclear derivative order                   I                0
External E-field                           R   N=          35
  0.00000000E+00  0.00000000E+00  0.00000000E+00  0.00000000E+00  0.00000000E+00
  0.00000000E+00  0.00000000E+00  0.00000000E+00  0.00000000E+00  0.00000000E+00
  0.00000000E+00  0.00000000E+00  0.00000000E+00  0.00000000E+00  0.00000000E+00
  0.00000000E+00  0.00000000E+00  0.00000000E+00  0.00000000E+00  0.00000000E+00
  0.00000000E+00  0.00000000E+00  0.00000000E+00  0.00000000E+00  0.00000000E+00
  0.00000000E+00  0.00000000E+00  0.00000000E+00  0.00000000E+00  0.00000000E+00
  0.00000000E+00  0.00000000E+00  0.00000000E+00  0.00000000E+00  0.00000000E+00
IOpCl                                      I                0
IROHF                                      I                0
Alpha Orbital Energies                     R   N=         167
 -1.01534065E+02 -1.02474818E+01 -1.01945927E+01 -1.01849952E+01 -1.01817786E+01
 -9.44850493E+00 -7.21285183E+00 -7.20341600E+00 -7.20325474E+00 -8.67733855E-01
 -7.87233073E-01 -7.42254282E-01 -6.40016031E-01 -5.77595861E-01 -4.85127268E-01
 -4.75660370E-01 -4.45414804E-01 -4.15528284E-01 -4.02883144E-01 -3.76009683E-01
 -3.66451538E-01 -3.06224170E-01 -2.98537581E-01 -2.80655501E-01 -3.41058545E-02
 -8.01540014E-03  6.07086970E-03  7.13792016E-03  2.20514165E-02  2.80831802E-02
  3.86746405E-02  4.11769516E-02  6.32607696E-02  6.44917747E-02  7.31394204E-02
  8.28613912E-02  8.85885688E-02  1.00023821E-01  1.09626839E-01  1.14445755E-01
  1.18425244E-01  1.21798504E-01  1.29059479E-01  1.30541354E-01  1.35232440E-01
  1.41225298E-01  1.50783929E-01  1.56422089E-01  1.61246286E-01  1.64952506E-01
  1.71677186E-01  1.86280610E-01  1.92092991E-01  2.11635668E-01  2.20274663E-01
  2.26080496E-01  2.50221073E-01  2.56701115E-01  2.71044938E-01  2.91686826E-01
  3.34030664E-01  3.45485714E-01  3.89976623E-01  4.26135012E-01  4.29142698E-01
  4.46184848E-01  4.60149109E-01  4.77341954E-01  4.90298995E-01  4.95462693E-01
  5.28464391E-01  5.29556660E-01  5.66893518E-01  5.90067551E-01  5.92932736E-01
  6.23278157E-01  6.35864036E-01  6.48242022E-01  6.56230948E-01  6.60816239E-01
  6.86186462E-01  7.06878624E-01  7.17681829E-01  7.37947792E-01  7.61334822E-01
  8.09570712E-01  8.29525291E-01  8.60486670E-01  8.92227853E-01  9.00822079E-01
  9.40805160E-01  9.57422241E-01  1.00267974E+00  1.03561025E+00  1.08288816E+00
  1.09420337E+00  1.12868468E+00  1.18174176E+00  1.19506643E+00  1.29090306E+00
  1.39122631E+00  1.42977662E+00  1.45078954E+00  1.46492850E+00  1.51606208E+00
  1.54002588E+00  1.55526340E+00  1.58163832E+00  1.59575494E+00  1.63459284E+00
  1.65510110E+00  1.68860987E+00  1.71670145E+00  1.72944341E+00  1.77248830E+00
  1.78179771E+00  1.86024391E+00  1.88242068E+00  1.92384054E+00  1.98625707E+00
  2.02785690E+00  2.06761163E+00  2.11750085E+00  2.17020191E+00  2.18297588E+00
  2.21087116E+00  2.25703487E+00  2.29946511E+00  2.30897757E+00  2.35570838E+00
  2.37358730E+00  2.45569724E+00  2.46104780E+00  2.48856228E+00  2.52761543E+00
  2.56353007E+00  2.57044735E+00  2.58373309E+00  2.59844316E+00  2.64320254E+00
  2.72008710E+00  2.73930553E+00  2.75055111E+00  2.77573762E+00  2.85312307E+00
  2.86165840E+00  2.93214991E+00  3.07478493E+00  3.08012695E+00  3.18563826E+00
  3.40058165E+00  3.50678060E+00  3.70395908E+00  3.79435853E+00  3.79499331E+00
  3.94265440E+00  4.11624206E+00  4.28100700E+00  9.75535252E+00  2.37149946E+01
  2.37909931E+01  2.39444570E+01  2.42496065E+01  2.59304192E+01  2.59787602E+01
  2.64464835E+01  2.15745034E+02
Alpha MO coefficients                      R   N=       27889
  1.57925971E-07 -3.15248986E-07 -2.66852134E-06 -2.24798495E-06 -1.23527258E-06
 -6.89410132E-07  1.97263174E-05  1.58455087E-05  9.27966542E-06  2.34121042E-05
  3.37846692E-05  2.58740651E-05  2.29824802E-05 -1.66962650E-03 -1.64499381E-04
  5.07389275E-04  2.97640271E-05  7.54767385E-06 -2.90277368E-06 -4.75046977E-06
  1.30447166E-05  5.12903725E-07  1.43593406E-06 -2.94086370E-06  1.24361088E-05
 -1.19866646E-05  5.34918387E-06 -1.61247459E-05 -1.48111044E-05  1.94214466E-05
 -1.93863007E-05  1.80581162E-04  1.24284337E-04 -1.28862111E-04 -2.61671466E-06
  3.83860155E-03 -4.52756870E-04  4.45737426E-04  8.59628442E-04  9.53850002E-06
 -1.77759804E-06  3.19179326E-06 -2.46902956E-06  8.07809171E-06 -6.27980662E-07
  1.84230228E-06  4.20738625E-06 -2.57906412E-06 -4.08691074E-06 -8.75504066E-06
 -2.44973998E-05  9.81723617E-06  2.49169234E-05  3.06972496E-05 -4.82272366E-07
 -1.42259144E-05 -5.12455170E-05 -1.16838654E-03 -1.27202620E-03 -4.20354196E-04
 -1.52812859E-05  6.81589419E-06  6.26396374E-06 -5.86649146E-06  7.07144419E-07
 -4.07937112E-06  3.45299491E-07 -1.01580623E-06 -1.46053403E-06  7.75994425E-07
  1.09836423E-07  1.04968133E-05  7.36400758E-06 -3.17292524E-06  3.97337126E-06
 -6.60956912E-05 -8.33911282E-05 -2.27499911E-05  4.10190654E-05 -1.66001451E-03
 -2.72167029E-04 -1.64858593E-04 -2.22272959E-04 -4.96648557E-06 -2.63099469E-06
 -1.78006416E-06 -1.38775894E-06 -2.29062638E-06 -3.47508584E-06  3.46519538E-05
  2.53341999E-05 -1.74657949E-05  7.48728622E-06 -1.12722275E-06  5.99225197E-06
  1.22396413E-05 -8.36839765E-05  7.81133021E-05  2.23550376E-04  8.24967223E-06
  1.32312278E-05 -1.10010397E-05  2.95860625E-06 -2.31356879E-05 -1.95524595E-05
 -4.57147755E-05 -8.84500043E-07  1.01385312E-06  1.90263468E-06  5.54242515E-06
 -3.51673550E-05  4.29863724E-05  8.20816628E-05 -1.03155017E-05  2.22640337E-06
  1.39283010E-05 -1.17167512E-06 -6.16739644E-05 -1.08972520E-04  1.33736616E-04
 -6.30832423E-06  2.01426819E-06 -1.56916483E-05  1.03329287E-05 -6.56599585E-05
 -2.02767659E-05  9.08501934E-05 -4.55316923E-06  1.25102534E-05  1.55884484E-05
 -7.61989902E-06  3.68340589E-05 -1.33311724E-04 -3.13316816E-04  1.83471045E-07
 -4.87236691E-06 -8.61782685E-07  4.11609642E-01  6.54076205E-01  1.50038011E-02