(R)-3-chloro-1-butene tau=120                                           
SP        RB3LYP                                                      6-311++G(d,p)       
Number of atoms                            I               12
Info1-9                                    I   N=           9
          26          26           0           0           0         110
           1          18        -502
Full Title                                 C   N=           3
(R)-3-chloro-1-butene tau=120       
Route                                      C   N=           7
#P B3LYP/6-311++G** scf(conver=11) int=ultrafine polar=optro
t cphf(rdfreq,conver=11)
Charge                                     I                0
Multiplicity                               I                1
Number of electrons                        I               48
Number of alpha electrons                  I               24
Number of beta electrons                   I               24
Number of basis functions                  I              167
Number of independent functions            I              167
Number of point charges in /Mol/           I                0
Number of translation vectors              I                0
Atomic numbers                             I   N=          12
           6           6           6           6           1           1
           1           1           1           1           1          17
Nuclear charges                            R   N=          12
  6.00000000E+00  6.00000000E+00  6.00000000E+00  6.00000000E+00  1.00000000E+00
  1.00000000E+00  1.00000000E+00  1.00000000E+00  1.00000000E+00  1.00000000E+00
  1.00000000E+00  1.70000000E+01
Current cartesian coordinates              R   N=          36
  9.13755577E-01  3.29209107E+00  7.48074130E-02  1.15775632E-02  6.94750679E-01
 -6.12317150E-01 -2.27420121E+00 -2.05101904E-01  8.17233111E-01 -4.40347938E+00
 -9.33646364E-01 -3.10642925E-01 -4.64581492E+00 -1.02809694E+00 -2.34600152E+00
  2.60463999E+00  3.93122030E+00 -9.22781960E-01 -6.00896176E+00 -1.49082343E+00
  8.35296758E-01 -2.22009839E+00 -6.89685036E-02  2.87041588E+00 -3.43651206E-01
  5.32606299E-01 -2.63478357E+00  1.21591369E+00  3.42676918E+00  2.11383015E+00
 -6.61490228E-01  4.55773891E+00 -3.92921387E-01  2.62197338E+00 -1.58523569E+00
  3.89684094E-02
Number of symbols in /Mol/                 I                0
Force Field                                I                0
Atom Types                                 C   N=          12
                                                            
                                                            
                        
Int Atom Types                             I   N=          12
           0           0           0           0           0           0
           0           0           0           0           0           0
MM charges                                 R   N=          12
  0.00000000E+00  0.00000000E+00  0.00000000E+00  0.00000000E+00  0.00000000E+00
  0.00000000E+00  0.00000000E+00  0.00000000E+00  0.00000000E+00  0.00000000E+00
  0.00000000E+00  0.00000000E+00
Integer atomic weights                     I   N=          12
          12          12          12          12           1           1
           1           1           1           1           1          35
Real atomic weights                        R   N=          12
  1.20000000E+01  1.20000000E+01  1.20000000E+01  1.20000000E+01  1.00782504E+00
  1.00782504E+00  1.00782504E+00  1.00782504E+00  1.00782504E+00  1.00782504E+00
  1.00782504E+00  3.49688527E+01
Atom fragment info                         I   N=          12
           0           0           0           0           0           0
           0           0           0           0           0           0
Atom residue num                           I   N=          12
           0           0           0           0           0           0
           0           0           0           0           0           0
Nuclear spins                              I   N=          12
           0           0           0           0           1           1
           1           1           1           1           1           3
Nuclear ZEff                               R   N=          12
 -3.60000000E+00 -3.60000000E+00 -3.60000000E+00 -3.60000000E+00 -1.00000000E+00
 -1.00000000E+00 -1.00000000E+00 -1.00000000E+00 -1.00000000E+00 -1.00000000E+00
 -1.00000000E+00 -1.42400000E+01
Nuclear ZNuc                               R   N=          12
  6.00000000E+00  6.00000000E+00  6.00000000E+00  6.00000000E+00  1.00000000E+00
  1.00000000E+00  1.00000000E+00  1.00000000E+00  1.00000000E+00  1.00000000E+00
  1.00000000E+00  1.70000000E+01
Nuclear QMom                               R   N=          12
  0.00000000E+00  0.00000000E+00  0.00000000E+00  0.00000000E+00  0.00000000E+00
  0.00000000E+00  0.00000000E+00  0.00000000E+00  0.00000000E+00  0.00000000E+00
  0.00000000E+00 -8.16500000E+00
Nuclear GFac                               R   N=          12
  0.00000000E+00  0.00000000E+00  0.00000000E+00  0.00000000E+00  2.79284600E+00
  2.79284600E+00  2.79284600E+00  2.79284600E+00  2.79284600E+00  2.79284600E+00
  2.79284600E+00  8.21874000E-01
MicOpt                                     I   N=          12
          -1          -1          -1          -1          -1          -1
          -1          -1          -1          -1          -1          -1
Number of residues                         I                0
Number of secondary structures             I                0
SymInf integers                            I   N=          26
           1           1           1           1           1           0
           0           0           0           0           0           0
           0           0           0           0           0           0
           0           0           0           0           0           0
           0           0
RotTr to input orientation                 R   N=          12
  9.99999685E-01  6.88221835E-04 -3.94996885E-04 -6.89743188E-04  9.99992295E-01
 -3.86442988E-03  3.92334256E-04  3.86470111E-03  9.99992455E-01 -3.07504425E-03
  7.23610781E-04  7.72555082E-04
Number of contracted shells                I               72
Number of primitive shells                 I              126
Pure/Cartesian d shells                    I                0
Pure/Cartesian f shells                    I                0
Highest angular momentum                   I                2
Largest degree of contraction              I                6
Shell types                                I   N=          72
           0          -1          -1          -1          -1          -2
           0          -1          -1          -1          -1          -2
           0          -1          -1          -1          -1          -2
           0          -1          -1          -1          -1          -2
           0           0           0           0           1           0
           0           0           0           1           0           0
           0           0           1           0           0           0
           0           1           0           0           0           0
           1           0           0           0           0           1
           0           0           0           0           1           0
           0           0           0           0           0          -1
           1           1           1           1           1          -2
Number of primitives per shell             I   N=          72
           6           3           1           1           1           1
           6           3           1           1           1           1
           6           3           1           1           1           1
           6           3           1           1           1           1
           3           1           1           1           1           3
           1           1           1           1           3           1
           1           1           1           3           1           1
           1           1           3           1           1           1
           1           3           1           1           1           1
           3           1           1           1           1           6
           3           1           1           1           1           1
           5           2           1           1           1           1
Shell to atom map                          I   N=          72
           1           1           1           1           1           1
           2           2           2           2           2           2
           3           3           3           3           3           3
           4           4           4           4           4           4
           5           5           5           5           5           6
           6           6           6           6           7           7
           7           7           7           8           8           8
           8           8           9           9           9           9
           9          10          10          10          10          10
          11          11          11          11          11          12
          12          12          12          12          12          12
          12          12          12          12          12          12
Primitive exponents                        R   N=         126
  4.56324000E+03  6.82024000E+02  1.54973000E+02  4.44553000E+01  1.30290000E+01
  1.82773000E+00  2.09642000E+01  4.80331000E+00  1.45933000E+00  4.83456000E-01
  1.45585000E-01  4.38000000E-02  6.26000000E-01  4.56324000E+03  6.82024000E+02
  1.54973000E+02  4.44553000E+01  1.30290000E+01  1.82773000E+00  2.09642000E+01
  4.80331000E+00  1.45933000E+00  4.83456000E-01  1.45585000E-01  4.38000000E-02
  6.26000000E-01  4.56324000E+03  6.82024000E+02  1.54973000E+02  4.44553000E+01
  1.30290000E+01  1.82773000E+00  2.09642000E+01  4.80331000E+00  1.45933000E+00
  4.83456000E-01  1.45585000E-01  4.38000000E-02  6.26000000E-01  4.56324000E+03
  6.82024000E+02  1.54973000E+02  4.44553000E+01  1.30290000E+01  1.82773000E+00
  2.09642000E+01  4.80331000E+00  1.45933000E+00  4.83456000E-01  1.45585000E-01
  4.38000000E-02  6.26000000E-01  3.38650000E+01  5.09479000E+00  1.15879000E+00
  3.25840000E-01  1.02741000E-01  3.60000000E-02  7.50000000E-01  3.38650000E+01
  5.09479000E+00  1.15879000E+00  3.25840000E-01  1.02741000E-01  3.60000000E-02
  7.50000000E-01  3.38650000E+01  5.09479000E+00  1.15879000E+00  3.25840000E-01
  1.02741000E-01  3.60000000E-02  7.50000000E-01  3.38650000E+01  5.09479000E+00
  1.15879000E+00  3.25840000E-01  1.02741000E-01  3.60000000E-02  7.50000000E-01
  3.38650000E+01  5.09479000E+00  1.15879000E+00  3.25840000E-01  1.02741000E-01
  3.60000000E-02  7.50000000E-01  3.38650000E+01  5.09479000E+00  1.15879000E+00
  3.25840000E-01  1.02741000E-01  3.60000000E-02  7.50000000E-01  3.38650000E+01
  5.09479000E+00  1.15879000E+00  3.25840000E-01  1.02741000E-01  3.60000000E-02
  7.50000000E-01  1.05819000E+05  1.58720000E+04  3.61965000E+03  1.03080000E+03
  3.39908000E+02  1.24538000E+02  1.24538000E+02  4.95135000E+01  2.08056000E+01
  6.58346000E+00  2.56468000E+00  5.59763000E-01  1.83273000E-01  4.83000000E-02
  5.89776000E+02  1.39849000E+02  4.51413000E+01  1.68733000E+01  2.77152000E+00
  6.74110000E+00  2.77152000E+00  1.02387000E+00  3.81368000E-01  1.09437000E-01
  7.50000000E-01
Contraction coefficients                   R   N=         126
  1.96665025E-03  1.52306019E-02  7.61269097E-02  2.60801033E-01  6.16462078E-01
  2.21006028E-01  1.14660081E-01  9.19999648E-01 -3.03068213E-03  1.00000000E+00
  1.00000000E+00  1.00000000E+00  1.00000000E+00  1.96665025E-03  1.52306019E-02
  7.61269097E-02  2.60801033E-01  6.16462078E-01  2.21006028E-01  1.14660081E-01
  9.19999648E-01 -3.03068213E-03  1.00000000E+00  1.00000000E+00  1.00000000E+00
  1.00000000E+00  1.96665025E-03  1.52306019E-02  7.61269097E-02  2.60801033E-01
  6.16462078E-01  2.21006028E-01  1.14660081E-01  9.19999648E-01 -3.03068213E-03
  1.00000000E+00  1.00000000E+00  1.00000000E+00  1.00000000E+00  1.96665025E-03
  1.52306019E-02  7.61269097E-02  2.60801033E-01  6.16462078E-01  2.21006028E-01
  1.14660081E-01  9.19999648E-01 -3.03068213E-03  1.00000000E+00  1.00000000E+00
  1.00000000E+00  1.00000000E+00  2.54938145E-02  1.90373109E-01  8.52161486E-01
  1.00000000E+00  1.00000000E+00  1.00000000E+00  1.00000000E+00  2.54938145E-02
  1.90373109E-01  8.52161486E-01  1.00000000E+00  1.00000000E+00  1.00000000E+00
  1.00000000E+00  2.54938145E-02  1.90373109E-01  8.52161486E-01  1.00000000E+00
  1.00000000E+00  1.00000000E+00  1.00000000E+00  2.54938145E-02  1.90373109E-01
  8.52161486E-01  1.00000000E+00  1.00000000E+00  1.00000000E+00  1.00000000E+00
  2.54938145E-02  1.90373109E-01  8.52161486E-01  1.00000000E+00  1.00000000E+00
  1.00000000E+00  1.00000000E+00  2.54938145E-02  1.90373109E-01  8.52161486E-01
  1.00000000E+00  1.00000000E+00  1.00000000E+00  1.00000000E+00  2.54938145E-02
  1.90373109E-01  8.52161486E-01  1.00000000E+00  1.00000000E+00  1.00000000E+00
  1.00000000E+00  7.38000247E-04  5.71800191E-03  2.94950099E-02  1.17286039E-01
  3.62949121E-01  5.84149195E-01  1.34176973E-01  6.24249876E-01  2.91755942E-01
  1.00000000E+00  1.00000000E+00  1.00000000E+00  1.00000000E+00  1.00000000E+00
  3.66556935E-03  2.83679194E-02  1.24756603E-01  3.39654631E-01  7.47585963E-01
 -1.57224381E+00  9.92388882E-01  1.00000000E+00  1.00000000E+00  1.00000000E+00
  1.00000000E+00
P(S=P) Contraction coefficients            R   N=         126
  0.00000000E+00  0.00000000E+00  0.00000000E+00  0.00000000E+00  0.00000000E+00
  0.00000000E+00  4.02486927E-02  2.37593957E-01  8.15853851E-01  1.00000000E+00
  1.00000000E+00  1.00000000E+00  0.00000000E+00  0.00000000E+00  0.00000000E+00
  0.00000000E+00  0.00000000E+00  0.00000000E+00  0.00000000E+00  4.02486927E-02
  2.37593957E-01  8.15853851E-01  1.00000000E+00  1.00000000E+00  1.00000000E+00
  0.00000000E+00  0.00000000E+00  0.00000000E+00  0.00000000E+00  0.00000000E+00
  0.00000000E+00  0.00000000E+00  4.02486927E-02  2.37593957E-01  8.15853851E-01
  1.00000000E+00  1.00000000E+00  1.00000000E+00  0.00000000E+00  0.00000000E+00
  0.00000000E+00  0.00000000E+00  0.00000000E+00  0.00000000E+00  0.00000000E+00
  4.02486927E-02  2.37593957E-01  8.15853851E-01  1.00000000E+00  1.00000000E+00
  1.00000000E+00  0.00000000E+00  0.00000000E+00  0.00000000E+00  0.00000000E+00
  0.00000000E+00  0.00000000E+00  0.00000000E+00  0.00000000E+00  0.00000000E+00
  0.00000000E+00  0.00000000E+00  0.00000000E+00  0.00000000E+00  0.00000000E+00
  0.00000000E+00  0.00000000E+00  0.00000000E+00  0.00000000E+00  0.00000000E+00
  0.00000000E+00  0.00000000E+00  0.00000000E+00  0.00000000E+00  0.00000000E+00
  0.00000000E+00  0.00000000E+00  0.00000000E+00  0.00000000E+00  0.00000000E+00
  0.00000000E+00  0.00000000E+00  0.00000000E+00  0.00000000E+00  0.00000000E+00
  0.00000000E+00  0.00000000E+00  0.00000000E+00  0.00000000E+00  0.00000000E+00
  0.00000000E+00  0.00000000E+00  0.00000000E+00  0.00000000E+00  0.00000000E+00
  0.00000000E+00  0.00000000E+00  0.00000000E+00  0.00000000E+00  0.00000000E+00
  0.00000000E+00  0.00000000E+00  0.00000000E+00  0.00000000E+00  0.00000000E+00
  0.00000000E+00  0.00000000E+00  0.00000000E+00  0.00000000E+00  0.00000000E+00
  0.00000000E+00  0.00000000E+00  0.00000000E+00  0.00000000E+00  1.00000000E+00
  0.00000000E+00  0.00000000E+00  0.00000000E+00  0.00000000E+00  0.00000000E+00
  0.00000000E+00  0.00000000E+00  0.00000000E+00  0.00000000E+00  0.00000000E+00
  0.00000000E+00
Coordinates of each shell                  R   N=         216
  9.13755577E-01  3.29209107E+00  7.48074130E-02  9.13755577E-01  3.29209107E+00
  7.48074130E-02  9.13755577E-01  3.29209107E+00  7.48074130E-02  9.13755577E-01
  3.29209107E+00  7.48074130E-02  9.13755577E-01  3.29209107E+00  7.48074130E-02
  9.13755577E-01  3.29209107E+00  7.48074130E-02  1.15775632E-02  6.94750679E-01
 -6.12317150E-01  1.15775632E-02  6.94750679E-01 -6.12317150E-01  1.15775632E-02
  6.94750679E-01 -6.12317150E-01  1.15775632E-02  6.94750679E-01 -6.12317150E-01
  1.15775632E-02  6.94750679E-01 -6.12317150E-01  1.15775632E-02  6.94750679E-01
 -6.12317150E-01 -2.27420121E+00 -2.05101904E-01  8.17233111E-01 -2.27420121E+00
 -2.05101904E-01  8.17233111E-01 -2.27420121E+00 -2.05101904E-01  8.17233111E-01
 -2.27420121E+00 -2.05101904E-01  8.17233111E-01 -2.27420121E+00 -2.05101904E-01
  8.17233111E-01 -2.27420121E+00 -2.05101904E-01  8.17233111E-01 -4.40347938E+00
 -9.33646364E-01 -3.10642925E-01 -4.40347938E+00 -9.33646364E-01 -3.10642925E-01
 -4.40347938E+00 -9.33646364E-01 -3.10642925E-01 -4.40347938E+00 -9.33646364E-01
 -3.10642925E-01 -4.40347938E+00 -9.33646364E-01 -3.10642925E-01 -4.40347938E+00
 -9.33646364E-01 -3.10642925E-01 -4.64581492E+00 -1.02809694E+00 -2.34600152E+00
 -4.64581492E+00 -1.02809694E+00 -2.34600152E+00 -4.64581492E+00 -1.02809694E+00
 -2.34600152E+00 -4.64581492E+00 -1.02809694E+00 -2.34600152E+00 -4.64581492E+00
 -1.02809694E+00 -2.34600152E+00  2.60463999E+00  3.93122030E+00 -9.22781960E-01
  2.60463999E+00  3.93122030E+00 -9.22781960E-01  2.60463999E+00  3.93122030E+00
 -9.22781960E-01  2.60463999E+00  3.93122030E+00 -9.22781960E-01  2.60463999E+00
  3.93122030E+00 -9.22781960E-01 -6.00896176E+00 -1.49082343E+00  8.35296758E-01
 -6.00896176E+00 -1.49082343E+00  8.35296758E-01 -6.00896176E+00 -1.49082343E+00
  8.35296758E-01 -6.00896176E+00 -1.49082343E+00  8.35296758E-01 -6.00896176E+00
 -1.49082343E+00  8.35296758E-01 -2.22009839E+00 -6.89685036E-02  2.87041588E+00
 -2.22009839E+00 -6.89685036E-02  2.87041588E+00 -2.22009839E+00 -6.89685036E-02
  2.87041588E+00 -2.22009839E+00 -6.89685036E-02  2.87041588E+00 -2.22009839E+00
 -6.89685036E-02  2.87041588E+00 -3.43651206E-01  5.32606299E-01 -2.63478357E+00
 -3.43651206E-01  5.32606299E-01 -2.63478357E+00 -3.43651206E-01  5.32606299E-01
 -2.63478357E+00 -3.43651206E-01  5.32606299E-01 -2.63478357E+00 -3.43651206E-01
  5.32606299E-01 -2.63478357E+00  1.21591369E+00  3.42676918E+00  2.11383015E+00
  1.21591369E+00  3.42676918E+00  2.11383015E+00  1.21591369E+00  3.42676918E+00
  2.11383015E+00  1.21591369E+00  3.42676918E+00  2.11383015E+00  1.21591369E+00
  3.42676918E+00  2.11383015E+00 -6.61490228E-01  4.55773891E+00 -3.92921387E-01
 -6.61490228E-01  4.55773891E+00 -3.92921387E-01 -6.61490228E-01  4.55773891E+00
 -3.92921387E-01 -6.61490228E-01  4.55773891E+00 -3.92921387E-01 -6.61490228E-01
  4.55773891E+00 -3.92921387E-01  2.62197338E+00 -1.58523569E+00  3.89684094E-02
  2.62197338E+00 -1.58523569E+00  3.89684094E-02  2.62197338E+00 -1.58523569E+00
  3.89684094E-02  2.62197338E+00 -1.58523569E+00  3.89684094E-02  2.62197338E+00
 -1.58523569E+00  3.89684094E-02  2.62197338E+00 -1.58523569E+00  3.89684094E-02
  2.62197338E+00 -1.58523569E+00  3.89684094E-02  2.62197338E+00 -1.58523569E+00
  3.89684094E-02  2.62197338E+00 -1.58523569E+00  3.89684094E-02  2.62197338E+00
 -1.58523569E+00  3.89684094E-02  2.62197338E+00 -1.58523569E+00  3.89684094E-02
  2.62197338E+00 -1.58523569E+00  3.89684094E-02  2.62197338E+00 -1.58523569E+00
  3.89684094E-02
Constraint Structure                       R   N=          36
  9.13755577E-01  3.29209107E+00  7.48074130E-02  1.15775632E-02  6.94750679E-01
 -6.12317150E-01 -2.27420121E+00 -2.05101904E-01  8.17233111E-01 -4.40347938E+00
 -9.33646364E-01 -3.10642925E-01 -4.64581492E+00 -1.02809694E+00 -2.34600152E+00
  2.60463999E+00  3.93122030E+00 -9.22781960E-01 -6.00896176E+00 -1.49082343E+00
  8.35296758E-01 -2.22009839E+00 -6.89685036E-02  2.87041588E+00 -3.43651206E-01
  5.32606299E-01 -2.63478357E+00  1.21591369E+00  3.42676918E+00  2.11383015E+00
 -6.61490228E-01  4.55773891E+00 -3.92921387E-01  2.62197338E+00 -1.58523569E+00
  3.89684094E-02
Num ILSW                                   I              100
ILSW                                       I   N=         100
           0           0           0           0           2           0
           0           0           0           0         402          -1
           5           0           0           0           0           0
           0           0           0           0           0           0
           1           0           0           0           0           0
           0           0      100000           0          -1           0
           0           0           0           0           0           0
           0           0           0           1           0           0
           0           0           1           0           0           0
           0           0           4          41           0           0
           0           0           5           0           0           0
           0           0           0           0           0           0
           0           0           0           0           0           0
           0           0           0           0           0           0
           0           0           0           0           0           0
           0           0           0           0           0           0
           0           0           0           0
Num RLSW                                   I               41
RLSW                                       R   N=          41
  8.00000000E-01  7.20000000E-01  1.00000000E+00  8.10000000E-01  2.00000000E-01
  0.00000000E+00  0.00000000E+00  1.00000000E+00  0.00000000E+00  0.00000000E+00
  0.00000000E+00  0.00000000E+00  1.00000000E+00  0.00000000E+00  0.00000000E+00
  0.00000000E+00  0.00000000E+00  1.00000000E+00  0.00000000E+00  0.00000000E+00
  0.00000000E+00  0.00000000E+00  1.00000000E+00  0.00000000E+00  0.00000000E+00
  0.00000000E+00  0.00000000E+00  1.00000000E+00  0.00000000E+00  0.00000000E+00
  0.00000000E+00  0.00000000E+00  0.00000000E+00  0.00000000E+00  0.00000000E+00
  0.00000000E+00  0.00000000E+00  0.00000000E+00  1.00000000E+00  1.00000000E+00
  0.00000000E+00
MxBond                                     I                4
NBond                                      I   N=          12
           4           4           3           3           1           1
           1           1           1           1           1           1
IBond                                      I   N=          48
           2           6          10          11           1           3
           9          12           2           4           8           0
           3           5           7           0           4           0
           0           0           1           0           0           0
           4           0           0           0           3           0
           0           0           2           0           0           0
           1           0           0           0           1           0
           0           0           2           0           0           0
RBond                                      R   N=          48
  1.00000000E+00  1.00000000E+00  1.00000000E+00  1.00000000E+00  1.00000000E+00
  1.00000000E+00  1.00000000E+00  1.00000000E+00  1.00000000E+00  2.00000000E+00
  1.00000000E+00  0.00000000E+00  2.00000000E+00  1.00000000E+00  1.00000000E+00
  0.00000000E+00  1.00000000E+00  0.00000000E+00  0.00000000E+00  0.00000000E+00
  1.00000000E+00  0.00000000E+00  0.00000000E+00  0.00000000E+00  1.00000000E+00
  0.00000000E+00  0.00000000E+00  0.00000000E+00  1.00000000E+00  0.00000000E+00
  0.00000000E+00  0.00000000E+00  1.00000000E+00  0.00000000E+00  0.00000000E+00
  0.00000000E+00  1.00000000E+00  0.00000000E+00  0.00000000E+00  0.00000000E+00
  1.00000000E+00  0.00000000E+00  0.00000000E+00  0.00000000E+00  1.00000000E+00
  0.00000000E+00  0.00000000E+00  0.00000000E+00
Virial Ratio                               R      2.003060947162187E+00
SCF Energy                                 R     -6.168939021996293E+02
Total Energy                               R     -6.168939021996293E+02
RMS Density                                R      8.517670617064618E-12
Nuclear derivative order                   I                0
External E-field                           R   N=          35
  0.00000000E+00  0.00000000E+00  0.00000000E+00  0.00000000E+00  0.00000000E+00
  0.00000000E+00  0.00000000E+00  0.00000000E+00  0.00000000E+00  0.00000000E+00
  0.00000000E+00  0.00000000E+00  0.00000000E+00  0.00000000E+00  0.00000000E+00
  0.00000000E+00  0.00000000E+00  0.00000000E+00  0.00000000E+00  0.00000000E+00
  0.00000000E+00  0.00000000E+00  0.00000000E+00  0.00000000E+00  0.00000000E+00
  0.00000000E+00  0.00000000E+00  0.00000000E+00  0.00000000E+00  0.00000000E+00
  0.00000000E+00  0.00000000E+00  0.00000000E+00  0.00000000E+00  0.00000000E+00
IOpCl                                      I                0
IROHF                                      I                0
Alpha Orbital Energies                     R   N=         167
 -1.01531488E+02 -1.02481221E+01 -1.01960514E+01 -1.01851249E+01 -1.01815886E+01
 -9.44584600E+00 -7.21013508E+00 -7.20080799E+00 -7.20062980E+00 -8.66148256E-01
 -7.86277679E-01 -7.45762458E-01 -6.38571776E-01 -5.78052379E-01 -4.85221301E-01
 -4.77784616E-01 -4.48127368E-01 -4.16983908E-01 -4.03627944E-01 -3.74746626E-01
 -3.64524507E-01 -3.05307924E-01 -2.97082885E-01 -2.80304973E-01 -3.37234446E-02
 -8.24161905E-03  6.03859525E-03  6.69389024E-03  2.12515115E-02  2.93248692E-02
  3.80397476E-02  4.06458716E-02  6.34693777E-02  6.38717933E-02  7.27084765E-02
  8.33504103E-02  8.72141433E-02  9.80633309E-02  1.12105404E-01  1.15333261E-01
  1.18973788E-01  1.22490345E-01  1.28245146E-01  1.30994957E-01  1.35446846E-01
  1.41082620E-01  1.50065942E-01  1.56414327E-01  1.59770451E-01  1.62976729E-01
  1.71616097E-01  1.88021466E-01  1.90880236E-01  2.11773832E-01  2.21446930E-01
  2.28804993E-01  2.48482401E-01  2.59603812E-01  2.67312292E-01  2.91647853E-01
  3.41998455E-01  3.52613107E-01  3.91034908E-01  4.25172216E-01  4.30574011E-01
  4.47829235E-01  4.58772494E-01  4.74600865E-01  4.88127104E-01  4.96358388E-01
  5.24002324E-01  5.27530966E-01  5.66255995E-01  5.86285159E-01  5.96208805E-01
  6.31020587E-01  6.35729633E-01  6.44531248E-01  6.52433270E-01  6.60193988E-01
  6.91223579E-01  6.98021595E-01  7.32177457E-01  7.35190370E-01  7.74227788E-01
  8.18192438E-01  8.31592518E-01  8.65059799E-01  8.94091693E-01  9.02748900E-01
  9.45226729E-01  9.69520790E-01  1.00327775E+00  1.03072989E+00  1.06030974E+00
  1.07126498E+00  1.13651869E+00  1.17278506E+00  1.19856396E+00  1.29687723E+00
  1.40759817E+00  1.43164747E+00  1.44809462E+00  1.46281782E+00  1.49978868E+00
  1.53482696E+00  1.55858775E+00  1.57676454E+00  1.61159596E+00  1.63020985E+00
  1.65777539E+00  1.68833253E+00  1.71053062E+00  1.72618811E+00  1.76387272E+00
  1.79210046E+00  1.86198071E+00  1.88499988E+00  1.93124382E+00  1.99794704E+00
  2.01819815E+00  2.06972455E+00  2.11854106E+00  2.18099444E+00  2.18472842E+00
  2.20847013E+00  2.24875907E+00  2.29771214E+00  2.30773239E+00  2.35614785E+00
  2.36611918E+00  2.45209764E+00  2.45771202E+00  2.49117255E+00  2.51982578E+00
  2.55837699E+00  2.57702810E+00  2.59181891E+00  2.59866206E+00  2.65600184E+00
  2.72561044E+00  2.73213908E+00  2.73860402E+00  2.78707384E+00  2.84769139E+00
  2.87395764E+00  2.93665000E+00  3.06864827E+00  3.08837170E+00  3.18371684E+00
  3.41629633E+00  3.49905544E+00  3.71497830E+00  3.79007036E+00  3.79779775E+00
  3.93935871E+00  4.12479553E+00  4.29639318E+00  9.75619011E+00  2.37264574E+01
  2.37917866E+01  2.39471725E+01  2.42476673E+01  2.59263296E+01  2.59761815E+01
  2.64406617E+01  2.15746007E+02
Alpha MO coefficients                      R   N=       27889
  7.50646764E-08 -1.03991110E-07 -3.00339141E-06 -1.90755052E-06 -1.58838037E-06
 -6.05573306E-07  2.10227620E-05  1.55503538E-05  1.09345670E-05  7.18333845E-06
  3.16597687E-05  3.09854911E-05  2.46308953E-05 -1.70975386E-03 -1.39935292E-04
  4.96308178E-04  3.45577053E-05  7.96636123E-06 -3.81498339E-06 -5.52859257E-06
  1.07198375E-05  1.81590623E-06  1.55224542E-06 -3.32196137E-06  1.07988624E-05
 -1.12355860E-05  5.48821508E-06 -1.51232010E-05 -1.03526840E-05  1.88231655E-05
 -2.09017060E-05  1.72164412E-04  1.22795575E-04 -1.17809485E-04 -1.88726279E-06
  3.52390468E-03 -4.18805423E-04  4.91022960E-04  8.18786756E-04  8.68413933E-06
  1.87848216E-07  3.04274980E-06 -2.64061111E-06  6.46165781E-06 -5.45047910E-07
  1.58650741E-06  3.75152510E-06 -2.91000031E-06 -4.06703649E-06 -7.12425067E-06
 -2.27409305E-05  1.15697027E-05  2.43984477E-05 -8.14311142E-07  1.32457260E-05
 -1.41286224E-05 -6.39442021E-05 -8.49050149E-04 -1.17956653E-03 -3.88189863E-04
 -1.95892497E-04  4.89891671E-06  3.68691041E-06 -5.71798207E-06  9.76682178E-07
 -4.11702117E-06  3.60388481E-07 -1.06613927E-06 -1.87869092E-06  5.50146671E-07
  7.23899065E-07  1.03040050E-05  9.66256898E-06 -1.81428861E-06  1.60589006E-06
 -5.83262545E-05 -7.99495494E-05 -1.77976444E-05  6.39400881E-05 -1.77751544E-03
 -3.61717549E-04 -1.80811655E-04 -1.16235488E-04 -5.45435312E-06 -1.73582009E-06
 -3.43791874E-06 -1.64268553E-06 -1.12682729E-06 -2.77885975E-06  3.37204785E-05
  6.71682013E-05  5.76875865E-05  6.95983657E-06 -4.29428174E-07  6.61964202E-06
  1.19102449E-05 -7.80432216E-05  7.72767122E-05  2.10457577E-04  7.64563733E-06
  1.35917016E-05 -1.06188393E-05  2.11912323E-06 -1.97771595E-05 -4.69913782E-05
 -1.37198365E-04 -4.44869422E-07 -1.41109903E-07  1.08185069E-06  6.12812401E-06
 -3.01114870E-05  7.38868012E-05  1.89116141E-04 -1.05740167E-05  1.86154178E-06
  1.17322810E-05 -8.62149863E-07 -6.14828725E-05 -1.07410213E-04  1.41885702E-04
 -7.93834640E-06  3.47829199E-06 -1.62618170E-05  1.00865645E-05 -6.30868524E-05
 -2.00462192E-05  7.73277819E-05 -4.76698922E-06  1.25538752E-05  1.52365086E-05
 -7.78957695E-06  4.26146370E-05 -1.43566440E-04 -3.14988691E-04  1.66619865E-06
 -6.45115151E-06 -7.62644005E-07  4.11609675E-01  6.54076291E-01  1.50033463E-02