(R)-3-chloro-1-butene tau=120                                           
SP        RB3LYP                                                      6-311++G(d,p)       
Number of atoms                            I               12
Info1-9                                    I   N=           9
          26          26           0           0           0         110
           1          18        -502
Full Title                                 C   N=           3
(R)-3-chloro-1-butene tau=120       
Route                                      C   N=           7
#P B3LYP/6-311++G** scf(conver=11) int=ultrafine polar=optro
t cphf(rdfreq,conver=11)
Charge                                     I                0
Multiplicity                               I                1
Number of electrons                        I               48
Number of alpha electrons                  I               24
Number of beta electrons                   I               24
Number of basis functions                  I              167
Number of independent functions            I              167
Number of point charges in /Mol/           I                0
Number of translation vectors              I                0
Atomic numbers                             I   N=          12
           6           6           6           6           1           1
           1           1           1           1           1          17
Nuclear charges                            R   N=          12
  6.00000000E+00  6.00000000E+00  6.00000000E+00  6.00000000E+00  1.00000000E+00
  1.00000000E+00  1.00000000E+00  1.00000000E+00  1.00000000E+00  1.00000000E+00
  1.00000000E+00  1.70000000E+01
Current cartesian coordinates              R   N=          36
  8.77186108E-01  3.31760758E+00  8.09813241E-02  1.19752449E-02  6.54279138E-01
 -6.13708137E-01 -2.27056213E+00 -2.05985291E-01  8.03537840E-01 -4.41249887E+00
 -9.40526530E-01 -2.88881015E-01 -4.59084834E+00 -9.49202929E-01 -2.33520836E+00
  2.58884986E+00  3.78485270E+00 -9.71632849E-01 -6.03098159E+00 -1.59451073E+00
  7.86883910E-01 -2.17293205E+00  6.41249720E-02  2.84886901E+00 -2.66561298E-01
  4.77427724E-01 -2.64575395E+00  1.29697987E+00  3.47611436E+00  2.09592810E+00
 -5.88526820E-01  4.69244224E+00 -4.06596893E-01  2.61925990E+00 -1.58255869E+00
  4.32900561E-02
Number of symbols in /Mol/                 I                0
Force Field                                I                0
Atom Types                                 C   N=          12
                                                            
                                                            
                        
Int Atom Types                             I   N=          12
           0           0           0           0           0           0
           0           0           0           0           0           0
MM charges                                 R   N=          12
  0.00000000E+00  0.00000000E+00  0.00000000E+00  0.00000000E+00  0.00000000E+00
  0.00000000E+00  0.00000000E+00  0.00000000E+00  0.00000000E+00  0.00000000E+00
  0.00000000E+00  0.00000000E+00
Integer atomic weights                     I   N=          12
          12          12          12          12           1           1
           1           1           1           1           1          35
Real atomic weights                        R   N=          12
  1.20000000E+01  1.20000000E+01  1.20000000E+01  1.20000000E+01  1.00782504E+00
  1.00782504E+00  1.00782504E+00  1.00782504E+00  1.00782504E+00  1.00782504E+00
  1.00782504E+00  3.49688527E+01
Atom fragment info                         I   N=          12
           0           0           0           0           0           0
           0           0           0           0           0           0
Atom residue num                           I   N=          12
           0           0           0           0           0           0
           0           0           0           0           0           0
Nuclear spins                              I   N=          12
           0           0           0           0           1           1
           1           1           1           1           1           3
Nuclear ZEff                               R   N=          12
 -3.60000000E+00 -3.60000000E+00 -3.60000000E+00 -3.60000000E+00 -1.00000000E+00
 -1.00000000E+00 -1.00000000E+00 -1.00000000E+00 -1.00000000E+00 -1.00000000E+00
 -1.00000000E+00 -1.42400000E+01
Nuclear ZNuc                               R   N=          12
  6.00000000E+00  6.00000000E+00  6.00000000E+00  6.00000000E+00  1.00000000E+00
  1.00000000E+00  1.00000000E+00  1.00000000E+00  1.00000000E+00  1.00000000E+00
  1.00000000E+00  1.70000000E+01
Nuclear QMom                               R   N=          12
  0.00000000E+00  0.00000000E+00  0.00000000E+00  0.00000000E+00  0.00000000E+00
  0.00000000E+00  0.00000000E+00  0.00000000E+00  0.00000000E+00  0.00000000E+00
  0.00000000E+00 -8.16500000E+00
Nuclear GFac                               R   N=          12
  0.00000000E+00  0.00000000E+00  0.00000000E+00  0.00000000E+00  2.79284600E+00
  2.79284600E+00  2.79284600E+00  2.79284600E+00  2.79284600E+00  2.79284600E+00
  2.79284600E+00  8.21874000E-01
MicOpt                                     I   N=          12
          -1          -1          -1          -1          -1          -1
          -1          -1          -1          -1          -1          -1
Number of residues                         I                0
Number of secondary structures             I                0
SymInf integers                            I   N=          26
           1           1           1           1           1           0
           0           0           0           0           0           0
           0           0           0           0           0           0
           0           0           0           0           0           0
           0           0
RotTr to input orientation                 R   N=          12
  9.99999807E-01 -6.21658729E-04  0.00000000E+00  6.21658729E-04  9.99999807E-01
  0.00000000E+00  0.00000000E+00  0.00000000E+00  1.00000000E+00  3.78016879E-04
  1.89858619E-03 -5.02461250E-04
Number of contracted shells                I               72
Number of primitive shells                 I              126
Pure/Cartesian d shells                    I                0
Pure/Cartesian f shells                    I                0
Highest angular momentum                   I                2
Largest degree of contraction              I                6
Shell types                                I   N=          72
           0          -1          -1          -1          -1          -2
           0          -1          -1          -1          -1          -2
           0          -1          -1          -1          -1          -2
           0          -1          -1          -1          -1          -2
           0           0           0           0           1           0
           0           0           0           1           0           0
           0           0           1           0           0           0
           0           1           0           0           0           0
           1           0           0           0           0           1
           0           0           0           0           1           0
           0           0           0           0           0          -1
           1           1           1           1           1          -2
Number of primitives per shell             I   N=          72
           6           3           1           1           1           1
           6           3           1           1           1           1
           6           3           1           1           1           1
           6           3           1           1           1           1
           3           1           1           1           1           3
           1           1           1           1           3           1
           1           1           1           3           1           1
           1           1           3           1           1           1
           1           3           1           1           1           1
           3           1           1           1           1           6
           3           1           1           1           1           1
           5           2           1           1           1           1
Shell to atom map                          I   N=          72
           1           1           1           1           1           1
           2           2           2           2           2           2
           3           3           3           3           3           3
           4           4           4           4           4           4
           5           5           5           5           5           6
           6           6           6           6           7           7
           7           7           7           8           8           8
           8           8           9           9           9           9
           9          10          10          10          10          10
          11          11          11          11          11          12
          12          12          12          12          12          12
          12          12          12          12          12          12
Primitive exponents                        R   N=         126
  4.56324000E+03  6.82024000E+02  1.54973000E+02  4.44553000E+01  1.30290000E+01
  1.82773000E+00  2.09642000E+01  4.80331000E+00  1.45933000E+00  4.83456000E-01
  1.45585000E-01  4.38000000E-02  6.26000000E-01  4.56324000E+03  6.82024000E+02
  1.54973000E+02  4.44553000E+01  1.30290000E+01  1.82773000E+00  2.09642000E+01
  4.80331000E+00  1.45933000E+00  4.83456000E-01  1.45585000E-01  4.38000000E-02
  6.26000000E-01  4.56324000E+03  6.82024000E+02  1.54973000E+02  4.44553000E+01
  1.30290000E+01  1.82773000E+00  2.09642000E+01  4.80331000E+00  1.45933000E+00
  4.83456000E-01  1.45585000E-01  4.38000000E-02  6.26000000E-01  4.56324000E+03
  6.82024000E+02  1.54973000E+02  4.44553000E+01  1.30290000E+01  1.82773000E+00
  2.09642000E+01  4.80331000E+00  1.45933000E+00  4.83456000E-01  1.45585000E-01
  4.38000000E-02  6.26000000E-01  3.38650000E+01  5.09479000E+00  1.15879000E+00
  3.25840000E-01  1.02741000E-01  3.60000000E-02  7.50000000E-01  3.38650000E+01
  5.09479000E+00  1.15879000E+00  3.25840000E-01  1.02741000E-01  3.60000000E-02
  7.50000000E-01  3.38650000E+01  5.09479000E+00  1.15879000E+00  3.25840000E-01
  1.02741000E-01  3.60000000E-02  7.50000000E-01  3.38650000E+01  5.09479000E+00
  1.15879000E+00  3.25840000E-01  1.02741000E-01  3.60000000E-02  7.50000000E-01
  3.38650000E+01  5.09479000E+00  1.15879000E+00  3.25840000E-01  1.02741000E-01
  3.60000000E-02  7.50000000E-01  3.38650000E+01  5.09479000E+00  1.15879000E+00
  3.25840000E-01  1.02741000E-01  3.60000000E-02  7.50000000E-01  3.38650000E+01
  5.09479000E+00  1.15879000E+00  3.25840000E-01  1.02741000E-01  3.60000000E-02
  7.50000000E-01  1.05819000E+05  1.58720000E+04  3.61965000E+03  1.03080000E+03
  3.39908000E+02  1.24538000E+02  1.24538000E+02  4.95135000E+01  2.08056000E+01
  6.58346000E+00  2.56468000E+00  5.59763000E-01  1.83273000E-01  4.83000000E-02
  5.89776000E+02  1.39849000E+02  4.51413000E+01  1.68733000E+01  2.77152000E+00
  6.74110000E+00  2.77152000E+00  1.02387000E+00  3.81368000E-01  1.09437000E-01
  7.50000000E-01
Contraction coefficients                   R   N=         126
  1.96665025E-03  1.52306019E-02  7.61269097E-02  2.60801033E-01  6.16462078E-01
  2.21006028E-01  1.14660081E-01  9.19999648E-01 -3.03068213E-03  1.00000000E+00
  1.00000000E+00  1.00000000E+00  1.00000000E+00  1.96665025E-03  1.52306019E-02
  7.61269097E-02  2.60801033E-01  6.16462078E-01  2.21006028E-01  1.14660081E-01
  9.19999648E-01 -3.03068213E-03  1.00000000E+00  1.00000000E+00  1.00000000E+00
  1.00000000E+00  1.96665025E-03  1.52306019E-02  7.61269097E-02  2.60801033E-01
  6.16462078E-01  2.21006028E-01  1.14660081E-01  9.19999648E-01 -3.03068213E-03
  1.00000000E+00  1.00000000E+00  1.00000000E+00  1.00000000E+00  1.96665025E-03
  1.52306019E-02  7.61269097E-02  2.60801033E-01  6.16462078E-01  2.21006028E-01
  1.14660081E-01  9.19999648E-01 -3.03068213E-03  1.00000000E+00  1.00000000E+00
  1.00000000E+00  1.00000000E+00  2.54938145E-02  1.90373109E-01  8.52161486E-01
  1.00000000E+00  1.00000000E+00  1.00000000E+00  1.00000000E+00  2.54938145E-02
  1.90373109E-01  8.52161486E-01  1.00000000E+00  1.00000000E+00  1.00000000E+00
  1.00000000E+00  2.54938145E-02  1.90373109E-01  8.52161486E-01  1.00000000E+00
  1.00000000E+00  1.00000000E+00  1.00000000E+00  2.54938145E-02  1.90373109E-01
  8.52161486E-01  1.00000000E+00  1.00000000E+00  1.00000000E+00  1.00000000E+00
  2.54938145E-02  1.90373109E-01  8.52161486E-01  1.00000000E+00  1.00000000E+00
  1.00000000E+00  1.00000000E+00  2.54938145E-02  1.90373109E-01  8.52161486E-01
  1.00000000E+00  1.00000000E+00  1.00000000E+00  1.00000000E+00  2.54938145E-02
  1.90373109E-01  8.52161486E-01  1.00000000E+00  1.00000000E+00  1.00000000E+00
  1.00000000E+00  7.38000247E-04  5.71800191E-03  2.94950099E-02  1.17286039E-01
  3.62949121E-01  5.84149195E-01  1.34176973E-01  6.24249876E-01  2.91755942E-01
  1.00000000E+00  1.00000000E+00  1.00000000E+00  1.00000000E+00  1.00000000E+00
  3.66556935E-03  2.83679194E-02  1.24756603E-01  3.39654631E-01  7.47585963E-01
 -1.57224381E+00  9.92388882E-01  1.00000000E+00  1.00000000E+00  1.00000000E+00
  1.00000000E+00
P(S=P) Contraction coefficients            R   N=         126
  0.00000000E+00  0.00000000E+00  0.00000000E+00  0.00000000E+00  0.00000000E+00
  0.00000000E+00  4.02486927E-02  2.37593957E-01  8.15853851E-01  1.00000000E+00
  1.00000000E+00  1.00000000E+00  0.00000000E+00  0.00000000E+00  0.00000000E+00
  0.00000000E+00  0.00000000E+00  0.00000000E+00  0.00000000E+00  4.02486927E-02
  2.37593957E-01  8.15853851E-01  1.00000000E+00  1.00000000E+00  1.00000000E+00
  0.00000000E+00  0.00000000E+00  0.00000000E+00  0.00000000E+00  0.00000000E+00
  0.00000000E+00  0.00000000E+00  4.02486927E-02  2.37593957E-01  8.15853851E-01
  1.00000000E+00  1.00000000E+00  1.00000000E+00  0.00000000E+00  0.00000000E+00
  0.00000000E+00  0.00000000E+00  0.00000000E+00  0.00000000E+00  0.00000000E+00
  4.02486927E-02  2.37593957E-01  8.15853851E-01  1.00000000E+00  1.00000000E+00
  1.00000000E+00  0.00000000E+00  0.00000000E+00  0.00000000E+00  0.00000000E+00
  0.00000000E+00  0.00000000E+00  0.00000000E+00  0.00000000E+00  0.00000000E+00
  0.00000000E+00  0.00000000E+00  0.00000000E+00  0.00000000E+00  0.00000000E+00
  0.00000000E+00  0.00000000E+00  0.00000000E+00  0.00000000E+00  0.00000000E+00
  0.00000000E+00  0.00000000E+00  0.00000000E+00  0.00000000E+00  0.00000000E+00
  0.00000000E+00  0.00000000E+00  0.00000000E+00  0.00000000E+00  0.00000000E+00
  0.00000000E+00  0.00000000E+00  0.00000000E+00  0.00000000E+00  0.00000000E+00
  0.00000000E+00  0.00000000E+00  0.00000000E+00  0.00000000E+00  0.00000000E+00
  0.00000000E+00  0.00000000E+00  0.00000000E+00  0.00000000E+00  0.00000000E+00
  0.00000000E+00  0.00000000E+00  0.00000000E+00  0.00000000E+00  0.00000000E+00
  0.00000000E+00  0.00000000E+00  0.00000000E+00  0.00000000E+00  0.00000000E+00
  0.00000000E+00  0.00000000E+00  0.00000000E+00  0.00000000E+00  0.00000000E+00
  0.00000000E+00  0.00000000E+00  0.00000000E+00  0.00000000E+00  1.00000000E+00
  0.00000000E+00  0.00000000E+00  0.00000000E+00  0.00000000E+00  0.00000000E+00
  0.00000000E+00  0.00000000E+00  0.00000000E+00  0.00000000E+00  0.00000000E+00
  0.00000000E+00
Coordinates of each shell                  R   N=         216
  8.77186108E-01  3.31760758E+00  8.09813241E-02  8.77186108E-01  3.31760758E+00
  8.09813241E-02  8.77186108E-01  3.31760758E+00  8.09813241E-02  8.77186108E-01
  3.31760758E+00  8.09813241E-02  8.77186108E-01  3.31760758E+00  8.09813241E-02
  8.77186108E-01  3.31760758E+00  8.09813241E-02  1.19752449E-02  6.54279138E-01
 -6.13708137E-01  1.19752449E-02  6.54279138E-01 -6.13708137E-01  1.19752449E-02
  6.54279138E-01 -6.13708137E-01  1.19752449E-02  6.54279138E-01 -6.13708137E-01
  1.19752449E-02  6.54279138E-01 -6.13708137E-01  1.19752449E-02  6.54279138E-01
 -6.13708137E-01 -2.27056213E+00 -2.05985291E-01  8.03537840E-01 -2.27056213E+00
 -2.05985291E-01  8.03537840E-01 -2.27056213E+00 -2.05985291E-01  8.03537840E-01
 -2.27056213E+00 -2.05985291E-01  8.03537840E-01 -2.27056213E+00 -2.05985291E-01
  8.03537840E-01 -2.27056213E+00 -2.05985291E-01  8.03537840E-01 -4.41249887E+00
 -9.40526530E-01 -2.88881015E-01 -4.41249887E+00 -9.40526530E-01 -2.88881015E-01
 -4.41249887E+00 -9.40526530E-01 -2.88881015E-01 -4.41249887E+00 -9.40526530E-01
 -2.88881015E-01 -4.41249887E+00 -9.40526530E-01 -2.88881015E-01 -4.41249887E+00
 -9.40526530E-01 -2.88881015E-01 -4.59084834E+00 -9.49202929E-01 -2.33520836E+00
 -4.59084834E+00 -9.49202929E-01 -2.33520836E+00 -4.59084834E+00 -9.49202929E-01
 -2.33520836E+00 -4.59084834E+00 -9.49202929E-01 -2.33520836E+00 -4.59084834E+00
 -9.49202929E-01 -2.33520836E+00  2.58884986E+00  3.78485270E+00 -9.71632849E-01
  2.58884986E+00  3.78485270E+00 -9.71632849E-01  2.58884986E+00  3.78485270E+00
 -9.71632849E-01  2.58884986E+00  3.78485270E+00 -9.71632849E-01  2.58884986E+00
  3.78485270E+00 -9.71632849E-01 -6.03098159E+00 -1.59451073E+00  7.86883910E-01
 -6.03098159E+00 -1.59451073E+00  7.86883910E-01 -6.03098159E+00 -1.59451073E+00
  7.86883910E-01 -6.03098159E+00 -1.59451073E+00  7.86883910E-01 -6.03098159E+00
 -1.59451073E+00  7.86883910E-01 -2.17293205E+00  6.41249720E-02  2.84886901E+00
 -2.17293205E+00  6.41249720E-02  2.84886901E+00 -2.17293205E+00  6.41249720E-02
  2.84886901E+00 -2.17293205E+00  6.41249720E-02  2.84886901E+00 -2.17293205E+00
  6.41249720E-02  2.84886901E+00 -2.66561298E-01  4.77427724E-01 -2.64575395E+00
 -2.66561298E-01  4.77427724E-01 -2.64575395E+00 -2.66561298E-01  4.77427724E-01
 -2.64575395E+00 -2.66561298E-01  4.77427724E-01 -2.64575395E+00 -2.66561298E-01
  4.77427724E-01 -2.64575395E+00  1.29697987E+00  3.47611436E+00  2.09592810E+00
  1.29697987E+00  3.47611436E+00  2.09592810E+00  1.29697987E+00  3.47611436E+00
  2.09592810E+00  1.29697987E+00  3.47611436E+00  2.09592810E+00  1.29697987E+00
  3.47611436E+00  2.09592810E+00 -5.88526820E-01  4.69244224E+00 -4.06596893E-01
 -5.88526820E-01  4.69244224E+00 -4.06596893E-01 -5.88526820E-01  4.69244224E+00
 -4.06596893E-01 -5.88526820E-01  4.69244224E+00 -4.06596893E-01 -5.88526820E-01
  4.69244224E+00 -4.06596893E-01  2.61925990E+00 -1.58255869E+00  4.32900561E-02
  2.61925990E+00 -1.58255869E+00  4.32900561E-02  2.61925990E+00 -1.58255869E+00
  4.32900561E-02  2.61925990E+00 -1.58255869E+00  4.32900561E-02  2.61925990E+00
 -1.58255869E+00  4.32900561E-02  2.61925990E+00 -1.58255869E+00  4.32900561E-02
  2.61925990E+00 -1.58255869E+00  4.32900561E-02  2.61925990E+00 -1.58255869E+00
  4.32900561E-02  2.61925990E+00 -1.58255869E+00  4.32900561E-02  2.61925990E+00
 -1.58255869E+00  4.32900561E-02  2.61925990E+00 -1.58255869E+00  4.32900561E-02
  2.61925990E+00 -1.58255869E+00  4.32900561E-02  2.61925990E+00 -1.58255869E+00
  4.32900561E-02
Constraint Structure                       R   N=          36
  8.77186108E-01  3.31760758E+00  8.09813241E-02  1.19752449E-02  6.54279138E-01
 -6.13708137E-01 -2.27056213E+00 -2.05985291E-01  8.03537840E-01 -4.41249887E+00
 -9.40526530E-01 -2.88881015E-01 -4.59084834E+00 -9.49202929E-01 -2.33520836E+00
  2.58884986E+00  3.78485270E+00 -9.71632849E-01 -6.03098159E+00 -1.59451073E+00
  7.86883910E-01 -2.17293205E+00  6.41249720E-02  2.84886901E+00 -2.66561298E-01
  4.77427724E-01 -2.64575395E+00  1.29697987E+00  3.47611436E+00  2.09592810E+00
 -5.88526820E-01  4.69244224E+00 -4.06596893E-01  2.61925990E+00 -1.58255869E+00
  4.32900561E-02
Num ILSW                                   I              100
ILSW                                       I   N=         100
           0           0           0           0           2           0
           0           0           0           0         402          -1
           5           0           0           0           0           0
           0           0           0           0           0           0
           1           0           0           0           0           0
           0           0      100000           0          -1           0
           0           0           0           0           0           0
           0           0           0           1           0           0
           0           0           1           0           0           0
           0           0           4          41           0           0
           0           0           5           0           0           0
           0           0           0           0           0           0
           0           0           0           0           0           0
           0           0           0           0           0           0
           0           0           0           0           0           0
           0           0           0           0           0           0
           0           0           0           0
Num RLSW                                   I               41
RLSW                                       R   N=          41
  8.00000000E-01  7.20000000E-01  1.00000000E+00  8.10000000E-01  2.00000000E-01
  0.00000000E+00  0.00000000E+00  1.00000000E+00  0.00000000E+00  0.00000000E+00
  0.00000000E+00  0.00000000E+00  1.00000000E+00  0.00000000E+00  0.00000000E+00
  0.00000000E+00  0.00000000E+00  1.00000000E+00  0.00000000E+00  0.00000000E+00
  0.00000000E+00  0.00000000E+00  1.00000000E+00  0.00000000E+00  0.00000000E+00
  0.00000000E+00  0.00000000E+00  1.00000000E+00  0.00000000E+00  0.00000000E+00
  0.00000000E+00  0.00000000E+00  0.00000000E+00  0.00000000E+00  0.00000000E+00
  0.00000000E+00  0.00000000E+00  0.00000000E+00  1.00000000E+00  1.00000000E+00
  0.00000000E+00
MxBond                                     I                4
NBond                                      I   N=          12
           4           4           3           3           1           1
           1           1           1           1           1           1
IBond                                      I   N=          48
           2           6          10          11           1           3
           9          12           2           4           8           0
           3           5           7           0           4           0
           0           0           1           0           0           0
           4           0           0           0           3           0
           0           0           2           0           0           0
           1           0           0           0           1           0
           0           0           2           0           0           0
RBond                                      R   N=          48
  1.00000000E+00  1.00000000E+00  1.00000000E+00  1.00000000E+00  1.00000000E+00
  1.00000000E+00  1.00000000E+00  1.00000000E+00  1.00000000E+00  2.00000000E+00
  1.00000000E+00  0.00000000E+00  2.00000000E+00  1.00000000E+00  1.00000000E+00
  0.00000000E+00  1.00000000E+00  0.00000000E+00  0.00000000E+00  0.00000000E+00
  1.00000000E+00  0.00000000E+00  0.00000000E+00  0.00000000E+00  1.00000000E+00
  0.00000000E+00  0.00000000E+00  0.00000000E+00  1.00000000E+00  0.00000000E+00
  0.00000000E+00  0.00000000E+00  1.00000000E+00  0.00000000E+00  0.00000000E+00
  0.00000000E+00  1.00000000E+00  0.00000000E+00  0.00000000E+00  0.00000000E+00
  1.00000000E+00  0.00000000E+00  0.00000000E+00  0.00000000E+00  1.00000000E+00
  0.00000000E+00  0.00000000E+00  0.00000000E+00
Virial Ratio                               R      2.003073177581016E+00
SCF Energy                                 R     -6.168944119017962E+02
Total Energy                               R     -6.168944119017962E+02
RMS Density                                R      4.124239171466362E-12
Nuclear derivative order                   I                0
External E-field                           R   N=          35
  0.00000000E+00  0.00000000E+00  0.00000000E+00  0.00000000E+00  0.00000000E+00
  0.00000000E+00  0.00000000E+00  0.00000000E+00  0.00000000E+00  0.00000000E+00
  0.00000000E+00  0.00000000E+00  0.00000000E+00  0.00000000E+00  0.00000000E+00
  0.00000000E+00  0.00000000E+00  0.00000000E+00  0.00000000E+00  0.00000000E+00
  0.00000000E+00  0.00000000E+00  0.00000000E+00  0.00000000E+00  0.00000000E+00
  0.00000000E+00  0.00000000E+00  0.00000000E+00  0.00000000E+00  0.00000000E+00
  0.00000000E+00  0.00000000E+00  0.00000000E+00  0.00000000E+00  0.00000000E+00
IOpCl                                      I                0
IROHF                                      I                0
Alpha Orbital Energies                     R   N=         167
 -1.01534389E+02 -1.02475164E+01 -1.01942293E+01 -1.01841798E+01 -1.01817443E+01
 -9.44885125E+00 -7.21320449E+00 -7.20374760E+00 -7.20360070E+00 -8.67949270E-01
 -7.87008458E-01 -7.41720975E-01 -6.40165453E-01 -5.77451119E-01 -4.85665454E-01
 -4.75314099E-01 -4.45119562E-01 -4.16415535E-01 -4.02359861E-01 -3.77419846E-01
 -3.66521796E-01 -3.04890874E-01 -2.98713124E-01 -2.80374013E-01 -3.33779466E-02
 -7.94558563E-03  6.11386829E-03  7.24348836E-03  2.29087950E-02  2.88515050E-02
  3.83501728E-02  4.13424245E-02  6.43444200E-02  6.49060503E-02  7.12779160E-02
  8.37241856E-02  8.74244441E-02  9.84049618E-02  1.10790818E-01  1.16381570E-01
  1.18660546E-01  1.20884995E-01  1.28955436E-01  1.30815982E-01  1.36592901E-01
  1.40912388E-01  1.49418025E-01  1.56548752E-01  1.62293791E-01  1.64764032E-01
  1.71238237E-01  1.87309203E-01  1.90751232E-01  2.12665230E-01  2.19243847E-01
  2.29455388E-01  2.47561394E-01  2.59250951E-01  2.70186850E-01  2.92020933E-01
  3.39728484E-01  3.45843043E-01  3.91063580E-01  4.24150158E-01  4.30621340E-01
  4.48870583E-01  4.57716698E-01  4.76990080E-01  4.87918664E-01  4.94173677E-01
  5.23248894E-01  5.29368183E-01  5.70120871E-01  5.86501236E-01  5.97812092E-01
  6.21980168E-01  6.36032311E-01  6.49341922E-01  6.57127472E-01  6.61785728E-01
  6.88000876E-01  6.97437910E-01  7.31547250E-01  7.39497861E-01  7.67856343E-01
  8.24598413E-01  8.27854582E-01  8.61576785E-01  8.90790982E-01  9.06120114E-01
  9.34787855E-01  9.65970111E-01  1.00360192E+00  1.02839063E+00  1.06580404E+00
  1.08625686E+00  1.14771871E+00  1.16613983E+00  1.20480865E+00  1.29292504E+00
  1.39147750E+00  1.42551105E+00  1.45026907E+00  1.46926480E+00  1.50699568E+00
  1.54108200E+00  1.55667961E+00  1.58535343E+00  1.59196547E+00  1.63744251E+00
  1.65805667E+00  1.68159629E+00  1.70131163E+00  1.72458298E+00  1.77740754E+00
  1.79230211E+00  1.87419416E+00  1.88240043E+00  1.92969200E+00  1.97981896E+00
  2.01963518E+00  2.07025924E+00  2.11748507E+00  2.18060071E+00  2.19092998E+00
  2.20133404E+00  2.24515469E+00  2.30021781E+00  2.31093960E+00  2.35495562E+00
  2.37544422E+00  2.45589873E+00  2.45804646E+00  2.49754630E+00  2.52606481E+00
  2.56299887E+00  2.57286711E+00  2.58924000E+00  2.61021289E+00  2.63548573E+00
  2.72825809E+00  2.73411647E+00  2.74711529E+00  2.78263094E+00  2.83902762E+00
  2.86443284E+00  2.92873955E+00  3.07936663E+00  3.08440998E+00  3.18686867E+00
  3.39471403E+00  3.51071734E+00  3.71520657E+00  3.79092053E+00  3.79632026E+00
  3.93017766E+00  4.12033604E+00  4.28288496E+00  9.75672173E+00  2.37159418E+01
  2.37891976E+01  2.39442590E+01  2.42542581E+01  2.59301827E+01  2.59759928E+01
  2.64470513E+01  2.15746731E+02
Alpha MO coefficients                      R   N=       27889
  2.38782534E-07 -5.52935090E-07 -2.52378423E-06 -2.20559084E-06 -1.30119683E-06
  1.66973912E-06  1.89704196E-05  1.51703131E-05  9.33547553E-06  7.65909821E-06
  3.91126449E-05  3.06480211E-05  1.99172491E-05 -1.76945461E-03 -1.35121051E-04
  5.35572979E-04  5.05625821E-05  7.31253573E-06 -3.02789758E-06 -4.37221460E-06
  1.35278396E-05 -1.83748138E-07  1.44752364E-06 -2.97647784E-06  1.24488498E-05
 -1.20174039E-05  5.17943987E-06 -1.54650283E-05 -1.45044483E-05  1.92491761E-05
 -1.85538758E-05  1.73006936E-04  1.31094268E-04 -1.20171361E-04 -9.03569124E-06
  3.79198519E-03 -4.70614207E-04  4.92976149E-04  8.38250880E-04  9.49315477E-06
 -1.47830217E-06  3.29762006E-06 -2.86219620E-06  8.05849257E-06 -5.65348347E-07
  1.64737024E-06  3.99459680E-06 -2.59989432E-06 -3.93190012E-06 -7.72557709E-06
 -2.45038631E-05  1.06916909E-05  2.42107041E-05  1.88445297E-05  1.42068325E-05
 -7.52350587E-06 -5.80763262E-05 -1.03945951E-03 -1.20821369E-03 -4.00883035E-04
 -1.77373031E-04  6.05894268E-06  5.50667347E-06 -4.38171914E-06  8.14553542E-07
 -3.96655196E-06  3.17740641E-07 -9.48122668E-07 -1.93363487E-06  6.67560510E-07
  8.90124416E-07  9.75671554E-06  8.78517342E-06 -2.65969091E-06  4.35636566E-07
 -5.36574570E-05 -8.61182329E-05 -2.28430250E-05  6.32447277E-05 -1.76091993E-03
 -3.90215120E-04 -1.97995026E-04 -8.49122743E-05 -4.89066406E-06 -1.90925871E-06
 -3.21365485E-06 -2.15066563E-06 -1.57824142E-06 -2.93124349E-06  3.29523021E-05
  6.81773289E-05  7.81265147E-05  6.58603346E-06 -5.22728711E-07  6.16838181E-06
  1.22999342E-05 -8.43651780E-05  7.86637593E-05  2.28695973E-04  8.09183572E-06
  1.30144168E-05 -1.09913821E-05  1.94421360E-06 -1.94837034E-05 -6.26619763E-05
 -1.75805182E-04 -8.68870132E-07 -7.31031906E-07  1.11112273E-06  7.19354906E-06
 -3.79482187E-05  7.25199566E-05  2.07111993E-04 -1.10087454E-05  1.92943002E-06
  1.29870045E-05 -1.31269523E-06 -6.08118177E-05 -1.25361928E-04  1.24295516E-04
 -5.83884177E-06  1.21132908E-06 -1.56629776E-05  1.01527930E-05 -6.29802727E-05
 -1.26514404E-05  5.76336364E-05 -4.54196167E-06  1.24136790E-05  1.50812859E-05
 -7.63345307E-06  3.74311737E-05 -1.29743239E-04 -3.02583141E-04  1.98961664E-07
 -4.78024619E-06 -4.19733007E-07  4.11609636E-01  6.54076144E-01  1.50041832E-02