 Entering Gaussian System, Link 0=g09
 Input=input.dat
 Output=output.dat
 Initial command:
 /cerebro/home/software/apps/g09/l1.exe /scratch/crawdad/Gau-2992.inp -scrdir=/scratch/crawdad/
 Entering Link 1 = /cerebro/home/software/apps/g09/l1.exe PID=      2995.
  
 Copyright (c) 1988,1990,1992,1993,1995,1998,2003,2009, Gaussian, Inc.
                  All Rights Reserved.
  
 This is part of the Gaussian(R) 09 program.  It is based on
 the Gaussian(R) 03 system (copyright 2003, Gaussian, Inc.),
 the Gaussian(R) 98 system (copyright 1998, Gaussian, Inc.),
 the Gaussian(R) 94 system (copyright 1995, Gaussian, Inc.),
 the Gaussian 92(TM) system (copyright 1992, Gaussian, Inc.),
 the Gaussian 90(TM) system (copyright 1990, Gaussian, Inc.),
 the Gaussian 88(TM) system (copyright 1988, Gaussian, Inc.),
 the Gaussian 86(TM) system (copyright 1986, Carnegie Mellon
 University), and the Gaussian 82(TM) system (copyright 1983,
 Carnegie Mellon University). Gaussian is a federally registered
 trademark of Gaussian, Inc.
  
 This software contains proprietary and confidential information,
 including trade secrets, belonging to Gaussian, Inc.
  
 This software is provided under written license and may be
 used, copied, transmitted, or stored only in accord with that
 written license.
  
 The following legend is applicable only to US Government
 contracts under FAR:
  
                    RESTRICTED RIGHTS LEGEND
  
 Use, reproduction and disclosure by the US Government is
 subject to restrictions as set forth in subparagraphs (a)
 and (c) of the Commercial Computer Software - Restricted
 Rights clause in FAR 52.227-19.
  
 Gaussian, Inc.
 340 Quinnipiac St., Bldg. 40, Wallingford CT 06492
  
  
 ---------------------------------------------------------------
 Warning -- This program may not be used in any manner that
 competes with the business of Gaussian, Inc. or will provide
 assistance to any competitor of Gaussian, Inc.  The licensee
 of this program is prohibited from giving any competitor of
 Gaussian, Inc. access to this program.  By using this program,
 the user acknowledges that Gaussian, Inc. is engaged in the
 business of creating and licensing software in the field of
 computational chemistry and represents and warrants to the
 licensee that it is not a competitor of Gaussian, Inc. and that
 it will not use this program in any manner prohibited above.
 ---------------------------------------------------------------
  

 Cite this work as:
 Gaussian 09, Revision A.02,
 M. J. Frisch, G. W. Trucks, H. B. Schlegel, G. E. Scuseria, 
 M. A. Robb, J. R. Cheeseman, G. Scalmani, V. Barone, B. Mennucci, 
 G. A. Petersson, H. Nakatsuji, M. Caricato, X. Li, H. P. Hratchian, 
 A. F. Izmaylov, J. Bloino, G. Zheng, J. L. Sonnenberg, M. Hada, 
 M. Ehara, K. Toyota, R. Fukuda, J. Hasegawa, M. Ishida, T. Nakajima, 
 Y. Honda, O. Kitao, H. Nakai, T. Vreven, J. A. Montgomery, Jr., 
 J. E. Peralta, F. Ogliaro, M. Bearpark, J. J. Heyd, E. Brothers, 
 K. N. Kudin, V. N. Staroverov, R. Kobayashi, J. Normand, 
 K. Raghavachari, A. Rendell, J. C. Burant, S. S. Iyengar, J. Tomasi, 
 M. Cossi, N. Rega, J. M. Millam, M. Klene, J. E. Knox, J. B. Cross, 
 V. Bakken, C. Adamo, J. Jaramillo, R. Gomperts, R. E. Stratmann, 
 O. Yazyev, A. J. Austin, R. Cammi, C. Pomelli, J. W. Ochterski, 
 R. L. Martin, K. Morokuma, V. G. Zakrzewski, G. A. Voth, 
 P. Salvador, J. J. Dannenberg, S. Dapprich, A. D. Daniels, 
 O. Farkas, J. B. Foresman, J. V. Ortiz, J. Cioslowski, 
 and D. J. Fox, Gaussian, Inc., Wallingford CT, 2009.
 
 ******************************************
 Gaussian 09:  EM64L-G09RevA.02 11-Jun-2009
                10-Jul-2013 
 ******************************************
 %chk=vibave
 %mem=1000mb
 %nproc=1
 Will use up to    1 processors via shared memory.
 ----------------------------------------------------------------------
 #P B3LYP/6-311++G** scf(conver=11) int=ultrafine polar=optrot cphf(rdf
 req,conver=11)
 ----------------------------------------------------------------------
 1/38=1,83=21/1;
 2/12=2,17=6,18=5,40=1/2;
 3/5=4,6=6,7=1111,11=2,16=1,25=1,30=1,36=2,74=-5,75=-5/1,2,3;
 4//1;
 5/5=2,6=11,38=5,96=-2,98=1/2;
 8/6=4,10=90,11=11/1;
 10/6=1,7=11,13=10,46=8,60=-2,72=3/2;
 6/7=2,8=2,9=2,10=2,28=1/1;
 99/5=1,9=1/99;
 Leave Link    1 at Wed Jul 10 16:50:08 2013, MaxMem=  131072000 cpu:       0.1
 (Enter /cerebro/home/software/apps/g09/l101.exe)
 -----------------------------
 (R)-3-chloro-1-butene tau=120
 -----------------------------
 Symbolic Z-matrix:
 Charge =  0 Multiplicity = 1
 C                     0.48253   1.76469   0.05609 
 C                    -0.01103   0.32552  -0.33759 
 C                    -1.20597  -0.09387   0.4268 
 C                    -2.32661  -0.49641  -0.15952 
 H                    -2.44296  -0.5486   -1.23743 
 H                     1.36216   2.05385  -0.52396 
 H                    -3.17769  -0.79082   0.44351 
 H                    -1.12239  -0.05624   1.50945 
 H                    -0.20876   0.26171  -1.40936 
 H                     0.68363   1.91214   1.1212 
 H                    -0.3314    2.43992  -0.23786 
 Cl                    1.38681  -0.83681   0.02389 
 
 NAtoms=     12 NQM=     12 NQMF=      0 NMic=      0 NMicF=      0 NTot=     12.
                    Isotopes and Nuclear Properties:
 (Nuclear quadrupole moments (NQMom) in fm**2, nuclear magnetic moments (NMagM)
  in nuclear magnetons)

  Atom         1           2           3           4           5           6           7           8           9          10
 IAtWgt=          12          12          12          12           1           1           1           1           1           1
 AtmWgt=  12.0000000  12.0000000  12.0000000  12.0000000   1.0078250   1.0078250   1.0078250   1.0078250   1.0078250   1.0078250
 NucSpn=           0           0           0           0           1           1           1           1           1           1
 AtZEff=   0.0000000   0.0000000   0.0000000   0.0000000   0.0000000   0.0000000   0.0000000   0.0000000   0.0000000   0.0000000
 NQMom=    0.0000000   0.0000000   0.0000000   0.0000000   0.0000000   0.0000000   0.0000000   0.0000000   0.0000000   0.0000000
 NMagM=    0.0000000   0.0000000   0.0000000   0.0000000   2.7928460   2.7928460   2.7928460   2.7928460   2.7928460   2.7928460

  Atom        11          12
 IAtWgt=           1          35
 AtmWgt=   1.0078250  34.9688527
 NucSpn=           1           3
 AtZEff=   0.0000000   0.0000000
 NQMom=    0.0000000  -8.1650000
 NMagM=    2.7928460   0.8218740
 Using perturbation frequencies:    0.071980    0.077357    0.104503    0.128347
 Leave Link  101 at Wed Jul 10 16:50:09 2013, MaxMem=  131072000 cpu:       0.1
 (Enter /cerebro/home/software/apps/g09/l202.exe)
                          Input orientation:                          
 ---------------------------------------------------------------------
 Center     Atomic      Atomic             Coordinates (Angstroms)
 Number     Number       Type             X           Y           Z
 ---------------------------------------------------------------------
      1          6           0        0.482534    1.764693    0.056086
      2          6           0       -0.011029    0.325523   -0.337586
      3          6           0       -1.205974   -0.093867    0.426799
      4          6           0       -2.326614   -0.496405   -0.159518
      5          1           0       -2.442961   -0.548601   -1.237430
      6          1           0        1.362156    2.053853   -0.523960
      7          1           0       -3.177690   -0.790818    0.443514
      8          1           0       -1.122389   -0.056245    1.509447
      9          1           0       -0.208764    0.261710   -1.409358
     10          1           0        0.683629    1.912139    1.121196
     11          1           0       -0.331400    2.439922   -0.237857
     12         17           0        1.386806   -0.836809    0.023890
 ---------------------------------------------------------------------
                    Distance matrix (angstroms):
                    1          2          3          4          5
     1  C    0.000000
     2  C    1.571557   0.000000
     3  C    2.538254   1.479212   0.000000
     4  C    3.612529   2.463577   1.327267   0.000000
     5  H    3.947535   2.736440   2.122871   1.085429   0.000000
     6  H    1.092612   2.215287   3.480221   4.499295   4.664839
     7  H    4.480846   3.447329   2.091335   1.083816   1.850424
     8  H    2.829108   2.189155   1.086521   2.104601   3.087339
     9  H    2.210063   1.091726   2.119514   2.573350   2.382813
    10  H    1.093910   2.264497   2.841979   4.062373   4.625357
    11  H    1.097645   2.140856   2.761654   3.550920   3.793297
    12  Cl   2.754371   1.853543   2.727051   3.733497   4.042413
                    6          7          8          9         10
     6  H    0.000000
     7  H    5.444112   0.000000
     8  H    3.841903   2.429007   0.000000
     9  H    2.542340   3.654514   3.074936   0.000000
    10  H    1.785223   4.761829   2.699440   3.150236   0.000000
    11  H    1.760408   4.359279   3.147949   2.476300   1.776475
    12  Cl   2.942223   4.583974   3.018645   2.409727   3.042245
                   11         12
    11  H    0.000000
    12  Cl   3.709138   0.000000
 Stoichiometry    C4H7Cl
 Framework group  C1[X(C4H7Cl)]
 Deg. of freedom    30
 Full point group                 C1      NOp   1
 Largest Abelian subgroup         C1      NOp   1
 Largest concise Abelian subgroup C1      NOp   1
                         Standard orientation:                         
 ---------------------------------------------------------------------
 Center     Atomic      Atomic             Coordinates (Angstroms)
 Number     Number       Type             X           Y           Z
 ---------------------------------------------------------------------
      1          6           0        0.487971    1.762698    0.046218
      2          6           0       -0.010492    0.322901   -0.338896
      3          6           0       -1.204471   -0.089454    0.430808
      4          6           0       -2.327767   -0.491921   -0.150453
      5          1           0       -2.447178   -0.549203   -1.227772
      6          1           0        1.366782    2.046592   -0.537645
      7          1           0       -3.177984   -0.781030    0.456344
      8          1           0       -1.117847   -0.046634    1.513024
      9          1           0       -0.211305    0.254251   -1.409797
     10          1           0        0.692349    1.914937    1.110028
     11          1           0       -0.324956    2.438623   -0.248908
     12         17           0        1.385217   -0.841346    0.024628
 ---------------------------------------------------------------------
 Rotational constants (GHZ):      5.5127277      2.7447751      2.0000104
 Leave Link  202 at Wed Jul 10 16:50:09 2013, MaxMem=  131072000 cpu:       0.0
 (Enter /cerebro/home/software/apps/g09/l301.exe)
 Standard basis: 6-311++G(d,p) (5D, 7F)
 Ernie: Thresh=  0.10000D-02 Tol=  0.10000D-05 Strict=F.
 There are   167 symmetry adapted basis functions of A   symmetry.
 Integral buffers will be    131072 words long.
 Raffenetti 2 integral format.
 Two-electron integral symmetry is turned on.
   167 basis functions,   260 primitive gaussians,   172 cartesian basis functions
    24 alpha electrons       24 beta electrons
       nuclear repulsion energy       211.1946375720 Hartrees.
 IExCor=  402 DFT=T Ex+Corr=B3LYP ExCW=0 ScaHFX=  0.200000
 ScaDFX=  0.800000  0.720000  1.000000  0.810000 ScalE2=  1.000000  1.000000
 IRadAn=      5 IRanWt=     -1 IRanGd=            0 ICorTp=0
 NAtoms=   12 NActive=   12 NUniq=   12 SFac= 7.50D-01 NAtFMM=   80 NAOKFM=F Big=F
 Leave Link  301 at Wed Jul 10 16:50:09 2013, MaxMem=  131072000 cpu:       0.1
 (Enter /cerebro/home/software/apps/g09/l302.exe)
 NPDir=0 NMtPBC=     1 NCelOv=     1 NCel=       1 NClECP=     1 NCelD=      1
         NCelK=      1 NCelE2=     1 NClLst=     1 CellRange=     0.0.
 One-electron integrals computed using PRISM.
 NBasis=   167 RedAO= T  NBF=   167
 NBsUse=   167 1.00D-06 NBFU=   167
 Precomputing XC quadrature grid using
 IXCGrd= 2 IRadAn=           5 IRanWt=          -1 IRanGd=           0 AccXCQ= 1.00D-10.
 NRdTot=    1019 NPtTot=      274288 NUsed=      281590 NTot=      281622
 NSgBfM=   172   172   172   172   172 NAtAll=    12    12.
 Leave Link  302 at Wed Jul 10 16:50:10 2013, MaxMem=  131072000 cpu:       0.7
 (Enter /cerebro/home/software/apps/g09/l303.exe)
 DipDrv:  MaxL=2.
 Leave Link  303 at Wed Jul 10 16:50:10 2013, MaxMem=  131072000 cpu:       0.1
 (Enter /cerebro/home/software/apps/g09/l401.exe)
 Harris functional with IExCor=  402 diagonalized for initial guess.
 ExpMin= 3.60D-02 ExpMax= 1.06D+05 ExpMxC= 3.62D+03 IAcc=3 IRadAn=         5 AccDes= 0.00D+00
 HarFok:  IExCor=  402 AccDes= 0.00D+00 IRadAn=         5 IDoV= 1
 ScaDFX=  1.000000  1.000000  1.000000  1.000000
 FoFCou: FMM=F IPFlag=           0 FMFlag=      100000 FMFlg1=           0
         NFxFlg=           0 DoJE=T BraDBF=F KetDBF=T FulRan=T
         Omega=  0.000000  0.000000  1.000000  0.000000  0.000000 ICntrl=     500 IOpCl=  0
         NMat0=    1 NMatS0=    1 NMatT0=    0 NMatD0=    1 NMtDS0=    0 NMtDT0=    0
         I1Cent=           4 NGrid=           0.
 Petite list used in FoFCou.
 Harris En= -616.910779653904    
 Initial guess orbital symmetries:
       Occupied  (A) (A) (A) (A) (A) (A) (A) (A) (A) (A) (A) (A)
                 (A) (A) (A) (A) (A) (A) (A) (A) (A) (A) (A) (A)
       Virtual   (A) (A) (A) (A) (A) (A) (A) (A) (A) (A) (A) (A)
                 (A) (A) (A) (A) (A) (A) (A) (A) (A) (A) (A) (A)
                 (A) (A) (A) (A) (A) (A) (A) (A) (A) (A) (A) (A)
                 (A) (A) (A) (A) (A) (A) (A) (A) (A) (A) (A) (A)
                 (A) (A) (A) (A) (A) (A) (A) (A) (A) (A) (A) (A)
                 (A) (A) (A) (A) (A) (A) (A) (A) (A) (A) (A) (A)
                 (A) (A) (A) (A) (A) (A) (A) (A) (A) (A) (A) (A)
                 (A) (A) (A) (A) (A) (A) (A) (A) (A) (A) (A) (A)
                 (A) (A) (A) (A) (A) (A) (A) (A) (A) (A) (A) (A)
                 (A) (A) (A) (A) (A) (A) (A) (A) (A) (A) (A) (A)
                 (A) (A) (A) (A) (A) (A) (A) (A) (A) (A) (A) (A)
                 (A) (A) (A) (A) (A) (A) (A) (A) (A) (A) (A)
 The electronic state of the initial guess is 1-A.
 Leave Link  401 at Wed Jul 10 16:50:17 2013, MaxMem=  131072000 cpu:       7.5
 (Enter /cerebro/home/software/apps/g09/l502.exe)
 Closed shell SCF:
 Requested convergence on RMS density matrix=1.00D-11 within 128 cycles.
 Requested convergence on MAX density matrix=1.00D-09.
 Requested convergence on             energy=1.00D-09.
 No special actions if energy rises.
 Using DIIS extrapolation, IDIIS=  1040.
 Integral symmetry usage will be decided dynamically.
       281469 words used for storage of precomputed grid.
 Keep R1 ints in memory in canonical form, NReq=113664361.
 IEnd=      390694 IEndB=      390694 NGot=   131072000 MDV=    20042794
 LenX=    20042794 LenY=    20012769
 Symmetry not used in FoFDir.
 MinBra= 0 MaxBra= 2 Meth= 1.
 IRaf=       0 NMat=   1 IRICut=       1 DoRegI=T DoRafI=F ISym2E= 0 JSym2E=0.

 Cycle   1  Pass 1  IDiag  1:
 E= -616.723639411315    
 DIIS: error= 2.34D-02 at cycle   1 NSaved=   1.
 NSaved= 1 IEnMin= 1 EnMin= -616.723639411315     IErMin= 1 ErrMin= 2.34D-02
 ErrMax= 2.34D-02 EMaxC= 1.00D-01 BMatC= 2.01D-01 BMatP= 2.01D-01
 IDIUse=3 WtCom= 7.66D-01 WtEn= 2.34D-01
 Coeff-Com:  0.100D+01
 Coeff-En:   0.100D+01
 Coeff:      0.100D+01
 Gap=     0.398 Goal=   None    Shift=    0.000
 GapD=    0.398 DampG=1.000 DampE=0.500 DampFc=0.5000 IDamp=-1.
 Damping current iteration by 5.00D-01
 RMSDP=6.58D-03 MaxDP=1.52D-01              OVMax= 2.23D-01

 Cycle   2  Pass 1  IDiag  1:
 E= -616.794251191087     Delta-E=       -0.070611779772 Rises=F Damp=T
 DIIS: error= 5.57D-03 at cycle   2 NSaved=   2.
 NSaved= 2 IEnMin= 2 EnMin= -616.794251191087     IErMin= 2 ErrMin= 5.57D-03
 ErrMax= 5.57D-03 EMaxC= 1.00D-01 BMatC= 1.25D-02 BMatP= 2.01D-01
 IDIUse=3 WtCom= 9.44D-01 WtEn= 5.57D-02
 Coeff-Com:  0.345D-01 0.966D+00
 Coeff-En:   0.175D+00 0.825D+00
 Coeff:      0.423D-01 0.958D+00
 Gap=     0.286 Goal=   None    Shift=    0.000
 RMSDP=4.32D-03 MaxDP=1.87D-01 DE=-7.06D-02 OVMax= 1.29D-01

 Cycle   3  Pass 1  IDiag  1:
 E= -616.887407926960     Delta-E=       -0.093156735873 Rises=F Damp=F
 DIIS: error= 5.76D-03 at cycle   3 NSaved=   3.
 NSaved= 3 IEnMin= 3 EnMin= -616.887407926960     IErMin= 2 ErrMin= 5.57D-03
 ErrMax= 5.76D-03 EMaxC= 1.00D-01 BMatC= 4.97D-03 BMatP= 1.25D-02
 IDIUse=3 WtCom= 9.42D-01 WtEn= 5.76D-02
 Coeff-Com: -0.653D-01 0.343D+00 0.722D+00
 Coeff-En:   0.000D+00 0.000D+00 0.100D+01
 Coeff:     -0.615D-01 0.323D+00 0.738D+00
 Gap=     0.261 Goal=   None    Shift=    0.000
 RMSDP=1.86D-03 MaxDP=6.02D-02 DE=-9.32D-02 OVMax= 2.71D-02

 Cycle   4  Pass 1  IDiag  1:
 E= -616.891157989313     Delta-E=       -0.003750062353 Rises=F Damp=F
 DIIS: error= 3.26D-03 at cycle   4 NSaved=   4.
 NSaved= 4 IEnMin= 4 EnMin= -616.891157989313     IErMin= 4 ErrMin= 3.26D-03
 ErrMax= 3.26D-03 EMaxC= 1.00D-01 BMatC= 1.93D-03 BMatP= 4.97D-03
 IDIUse=3 WtCom= 9.67D-01 WtEn= 3.26D-02
 Coeff-Com: -0.392D-01 0.129D+00 0.451D+00 0.460D+00
 Coeff-En:   0.000D+00 0.000D+00 0.248D+00 0.752D+00
 Coeff:     -0.379D-01 0.124D+00 0.444D+00 0.469D+00
 Gap=     0.248 Goal=   None    Shift=    0.000
 RMSDP=5.54D-04 MaxDP=1.68D-02 DE=-3.75D-03 OVMax= 1.30D-02

 Cycle   5  Pass 1  IDiag  1:
 E= -616.892988706560     Delta-E=       -0.001830717247 Rises=F Damp=F
 DIIS: error= 5.82D-04 at cycle   5 NSaved=   5.
 NSaved= 5 IEnMin= 5 EnMin= -616.892988706560     IErMin= 5 ErrMin= 5.82D-04
 ErrMax= 5.82D-04 EMaxC= 1.00D-01 BMatC= 6.97D-05 BMatP= 1.93D-03
 IDIUse=3 WtCom= 9.94D-01 WtEn= 5.82D-03
 Coeff-Com: -0.140D-01 0.404D-01 0.178D+00 0.230D+00 0.566D+00
 Coeff-En:   0.000D+00 0.000D+00 0.000D+00 0.000D+00 0.100D+01
 Coeff:     -0.139D-01 0.401D-01 0.177D+00 0.229D+00 0.568D+00
 Gap=     0.248 Goal=   None    Shift=    0.000
 RMSDP=9.92D-05 MaxDP=3.07D-03 DE=-1.83D-03 OVMax= 6.10D-03

 Cycle   6  Pass 1  IDiag  1:
 E= -616.893048290167     Delta-E=       -0.000059583607 Rises=F Damp=F
 DIIS: error= 2.72D-04 at cycle   6 NSaved=   6.
 NSaved= 6 IEnMin= 6 EnMin= -616.893048290167     IErMin= 6 ErrMin= 2.72D-04
 ErrMax= 2.72D-04 EMaxC= 1.00D-01 BMatC= 1.44D-05 BMatP= 6.97D-05
 IDIUse=3 WtCom= 9.97D-01 WtEn= 2.72D-03
 Coeff-Com: -0.376D-02 0.731D-02 0.529D-01 0.768D-01 0.339D+00 0.528D+00
 Coeff-En:   0.000D+00 0.000D+00 0.000D+00 0.000D+00 0.164D+00 0.836D+00
 Coeff:     -0.375D-02 0.729D-02 0.528D-01 0.766D-01 0.339D+00 0.529D+00
 Gap=     0.248 Goal=   None    Shift=    0.000
 RMSDP=4.30D-05 MaxDP=1.42D-03 DE=-5.96D-05 OVMax= 2.17D-03

 Cycle   7  Pass 1  IDiag  1:
 E= -616.893062235177     Delta-E=       -0.000013945010 Rises=F Damp=F
 DIIS: error= 3.89D-05 at cycle   7 NSaved=   7.
 NSaved= 7 IEnMin= 7 EnMin= -616.893062235177     IErMin= 7 ErrMin= 3.89D-05
 ErrMax= 3.89D-05 EMaxC= 1.00D-01 BMatC= 5.14D-07 BMatP= 1.44D-05
 IDIUse=1 WtCom= 1.00D+00 WtEn= 0.00D+00
 Coeff-Com: -0.749D-03 0.508D-03 0.126D-01 0.189D-01 0.113D+00 0.245D+00
 Coeff-Com:  0.611D+00
 Coeff:     -0.749D-03 0.508D-03 0.126D-01 0.189D-01 0.113D+00 0.245D+00
 Coeff:      0.611D+00
 Gap=     0.248 Goal=   None    Shift=    0.000
 RMSDP=1.08D-05 MaxDP=4.10D-04 DE=-1.39D-05 OVMax= 2.19D-04

 Cycle   8  Pass 1  IDiag  1:
 E= -616.893062706535     Delta-E=       -0.000000471358 Rises=F Damp=F
 DIIS: error= 7.41D-06 at cycle   8 NSaved=   8.
 NSaved= 8 IEnMin= 8 EnMin= -616.893062706535     IErMin= 8 ErrMin= 7.41D-06
 ErrMax= 7.41D-06 EMaxC= 1.00D-01 BMatC= 1.87D-08 BMatP= 5.14D-07
 IDIUse=1 WtCom= 1.00D+00 WtEn= 0.00D+00
 Coeff-Com:  0.424D-04-0.349D-03 0.720D-03 0.133D-02 0.185D-01 0.586D-01
 Coeff-Com:  0.224D+00 0.697D+00
 Coeff:      0.424D-04-0.349D-03 0.720D-03 0.133D-02 0.185D-01 0.586D-01
 Coeff:      0.224D+00 0.697D+00
 Gap=     0.248 Goal=   None    Shift=    0.000
 RMSDP=2.04D-06 MaxDP=5.09D-05 DE=-4.71D-07 OVMax= 4.61D-05

 Cycle   9  Pass 1  IDiag  1:
 E= -616.893062724256     Delta-E=       -0.000000017722 Rises=F Damp=F
 DIIS: error= 2.29D-06 at cycle   9 NSaved=   9.
 NSaved= 9 IEnMin= 9 EnMin= -616.893062724256     IErMin= 9 ErrMin= 2.29D-06
 ErrMax= 2.29D-06 EMaxC= 1.00D-01 BMatC= 1.12D-09 BMatP= 1.87D-08
 IDIUse=1 WtCom= 1.00D+00 WtEn= 0.00D+00
 Coeff-Com:  0.418D-04-0.962D-04-0.485D-03-0.658D-03-0.243D-02-0.123D-02
 Coeff-Com:  0.155D-01 0.230D+00 0.760D+00
 Coeff:      0.418D-04-0.962D-04-0.485D-03-0.658D-03-0.243D-02-0.123D-02
 Coeff:      0.155D-01 0.230D+00 0.760D+00
 Gap=     0.248 Goal=   None    Shift=    0.000
 RMSDP=9.11D-07 MaxDP=3.12D-05 DE=-1.77D-08 OVMax= 9.00D-06

 Cycle  10  Pass 1  IDiag  1:
 E= -616.893062725390     Delta-E=       -0.000000001134 Rises=F Damp=F
 DIIS: error= 2.31D-07 at cycle  10 NSaved=  10.
 NSaved=10 IEnMin=10 EnMin= -616.893062725390     IErMin=10 ErrMin= 2.31D-07
 ErrMax= 2.31D-07 EMaxC= 1.00D-01 BMatC= 1.48D-11 BMatP= 1.12D-09
 IDIUse=1 WtCom= 1.00D+00 WtEn= 0.00D+00
 Coeff-Com:  0.684D-05-0.100D-04-0.130D-03-0.175D-03-0.956D-03-0.149D-02
 Coeff-Com: -0.153D-02 0.413D-01 0.181D+00 0.782D+00
 Coeff:      0.684D-05-0.100D-04-0.130D-03-0.175D-03-0.956D-03-0.149D-02
 Coeff:     -0.153D-02 0.413D-01 0.181D+00 0.782D+00
 Gap=     0.248 Goal=   None    Shift=    0.000
 RMSDP=1.47D-07 MaxDP=5.98D-06 DE=-1.13D-09 OVMax= 1.14D-06

 Cycle  11  Pass 1  IDiag  1:
 E= -616.893062725408     Delta-E=       -0.000000000018 Rises=F Damp=F
 DIIS: error= 4.26D-08 at cycle  11 NSaved=  11.
 NSaved=11 IEnMin=11 EnMin= -616.893062725408     IErMin=11 ErrMin= 4.26D-08
 ErrMax= 4.26D-08 EMaxC= 1.00D-01 BMatC= 5.84D-13 BMatP= 1.48D-11
 IDIUse=1 WtCom= 1.00D+00 WtEn= 0.00D+00
 Coeff-Com:  0.308D-06 0.225D-06-0.175D-04-0.252D-04-0.152D-03-0.227D-03
 Coeff-Com: -0.728D-03 0.175D-02 0.177D-01 0.168D+00 0.813D+00
 Coeff:      0.308D-06 0.225D-06-0.175D-04-0.252D-04-0.152D-03-0.227D-03
 Coeff:     -0.728D-03 0.175D-02 0.177D-01 0.168D+00 0.813D+00
 Gap=     0.248 Goal=   None    Shift=    0.000
 RMSDP=4.00D-08 MaxDP=1.76D-06 DE=-1.84D-11 OVMax= 2.45D-07

 Cycle  12  Pass 1  IDiag  1:
 E= -616.893062725407     Delta-E=        0.000000000002 Rises=F Damp=F
 DIIS: error= 1.89D-08 at cycle  12 NSaved=  12.
 NSaved=12 IEnMin=11 EnMin= -616.893062725408     IErMin=12 ErrMin= 1.89D-08
 ErrMax= 1.89D-08 EMaxC= 1.00D-01 BMatC= 6.94D-14 BMatP= 5.84D-13
 IDIUse=1 WtCom= 1.00D+00 WtEn= 0.00D+00
 Coeff-Com: -0.280D-06 0.724D-06 0.359D-06-0.849D-06-0.136D-04-0.627D-05
 Coeff-Com: -0.225D-03-0.135D-02-0.167D-02 0.257D-01 0.309D+00 0.669D+00
 Coeff:     -0.280D-06 0.724D-06 0.359D-06-0.849D-06-0.136D-04-0.627D-05
 Coeff:     -0.225D-03-0.135D-02-0.167D-02 0.257D-01 0.309D+00 0.669D+00
 Gap=     0.248 Goal=   None    Shift=    0.000
 RMSDP=8.62D-09 MaxDP=3.49D-07 DE= 1.71D-12 OVMax= 7.27D-08

 Cycle  13  Pass 1  IDiag  1:
 E= -616.893062725409     Delta-E=       -0.000000000002 Rises=F Damp=F
 DIIS: error= 4.83D-09 at cycle  13 NSaved=  13.
 NSaved=13 IEnMin=13 EnMin= -616.893062725409     IErMin=13 ErrMin= 4.83D-09
 ErrMax= 4.83D-09 EMaxC= 1.00D-01 BMatC= 5.66D-15 BMatP= 6.94D-14
 IDIUse=1 WtCom= 1.00D+00 WtEn= 0.00D+00
 Coeff-Com: -0.131D-06 0.285D-06 0.108D-05 0.891D-06 0.538D-06 0.637D-05
 Coeff-Com: -0.773D-04-0.733D-03-0.183D-02 0.120D-02 0.890D-01 0.291D+00
 Coeff-Com:  0.622D+00
 Coeff:     -0.131D-06 0.285D-06 0.108D-05 0.891D-06 0.538D-06 0.637D-05
 Coeff:     -0.773D-04-0.733D-03-0.183D-02 0.120D-02 0.890D-01 0.291D+00
 Coeff:      0.622D+00
 Gap=     0.248 Goal=   None    Shift=    0.000
 RMSDP=9.07D-10 MaxDP=2.61D-08 DE=-1.82D-12 OVMax= 1.82D-08

 Cycle  14  Pass 1  IDiag  1:
 E= -616.893062725408     Delta-E=        0.000000000000 Rises=F Damp=F
 DIIS: error= 1.08D-09 at cycle  14 NSaved=  14.
 NSaved=14 IEnMin=13 EnMin= -616.893062725409     IErMin=14 ErrMin= 1.08D-09
 ErrMax= 1.08D-09 EMaxC= 1.00D-01 BMatC= 3.90D-16 BMatP= 5.66D-15
 IDIUse=1 WtCom= 1.00D+00 WtEn= 0.00D+00
 Coeff-Com: -0.106D-07 0.219D-07 0.326D-06 0.377D-06 0.119D-05 0.296D-05
 Coeff-Com: -0.414D-05-0.940D-04-0.433D-03-0.226D-02-0.358D-03 0.359D-01
 Coeff-Com:  0.239D+00 0.728D+00
 Coeff:     -0.106D-07 0.219D-07 0.326D-06 0.377D-06 0.119D-05 0.296D-05
 Coeff:     -0.414D-05-0.940D-04-0.433D-03-0.226D-02-0.358D-03 0.359D-01
 Coeff:      0.239D+00 0.728D+00
 Gap=     0.248 Goal=   None    Shift=    0.000
 RMSDP=4.93D-10 MaxDP=1.70D-08 DE= 3.41D-13 OVMax= 6.06D-09

 Cycle  15  Pass 1  IDiag  1:
 E= -616.893062725409     Delta-E=       -0.000000000001 Rises=F Damp=F
 DIIS: error= 1.64D-10 at cycle  15 NSaved=  15.
 NSaved=15 IEnMin=15 EnMin= -616.893062725409     IErMin=15 ErrMin= 1.64D-10
 ErrMax= 1.64D-10 EMaxC= 1.00D-01 BMatC= 4.52D-18 BMatP= 3.90D-16
 IDIUse=1 WtCom= 1.00D+00 WtEn= 0.00D+00
 Coeff-Com:  0.570D-09-0.132D-08 0.441D-07 0.738D-07 0.226D-06 0.431D-06
 Coeff-Com:  0.104D-05-0.126D-07-0.389D-04-0.468D-03-0.248D-02-0.656D-03
 Coeff-Com:  0.241D-01 0.137D+00 0.842D+00
 Coeff:      0.570D-09-0.132D-08 0.441D-07 0.738D-07 0.226D-06 0.431D-06
 Coeff:      0.104D-05-0.126D-07-0.389D-04-0.468D-03-0.248D-02-0.656D-03
 Coeff:      0.241D-01 0.137D+00 0.842D+00
 Gap=     0.248 Goal=   None    Shift=    0.000
 RMSDP=8.69D-11 MaxDP=2.65D-09 DE=-1.25D-12 OVMax= 7.16D-10

 Cycle  16  Pass 1  IDiag  1:
 E= -616.893062725407     Delta-E=        0.000000000003 Rises=F Damp=F
 DIIS: error= 4.44D-11 at cycle  16 NSaved=  16.
 NSaved=16 IEnMin=15 EnMin= -616.893062725409     IErMin=16 ErrMin= 4.44D-11
 ErrMax= 4.44D-11 EMaxC= 1.00D-01 BMatC= 2.14D-19 BMatP= 4.52D-18
 IDIUse=1 WtCom= 1.00D+00 WtEn= 0.00D+00
 Large coefficients: NSaved= 16 BigCof=    0.00 CofMax=   10.00 Det=-2.57D-18
 Inversion failed.  Reducing to 15 matrices.
 Coeff-Com: -0.204D-09 0.450D-08 0.125D-07 0.403D-07 0.845D-07 0.405D-06
 Coeff-Com:  0.173D-05 0.195D-05-0.371D-04-0.475D-03-0.103D-02-0.275D-02
 Coeff-Com:  0.592D-02 0.193D+00 0.805D+00
 Coeff:     -0.204D-09 0.450D-08 0.125D-07 0.403D-07 0.845D-07 0.405D-06
 Coeff:      0.173D-05 0.195D-05-0.371D-04-0.475D-03-0.103D-02-0.275D-02
 Coeff:      0.592D-02 0.193D+00 0.805D+00
 Gap=     0.248 Goal=   None    Shift=    0.000
 RMSDP=3.06D-11 MaxDP=1.13D-09 DE= 2.73D-12 OVMax= 1.96D-10

 Cycle  17  Pass 1  IDiag  1:
 E= -616.893062725410     Delta-E=       -0.000000000004 Rises=F Damp=F
 DIIS: error= 8.24D-12 at cycle  17 NSaved=  16.
 NSaved=16 IEnMin=16 EnMin= -616.893062725410     IErMin=16 ErrMin= 8.24D-12
 ErrMax= 8.24D-12 EMaxC= 1.00D-01 BMatC= 1.02D-20 BMatP= 2.14D-19
 IDIUse=1 WtCom= 1.00D+00 WtEn= 0.00D+00
 Large coefficients: NSaved= 16 BigCof=    0.00 CofMax=   10.00 Det=-1.20D-19
 Inversion failed.  Reducing to 15 matrices.
 Coeff-Com: -0.128D-08-0.878D-09-0.248D-08 0.512D-10 0.525D-07 0.441D-06
 Coeff-Com:  0.259D-05 0.130D-04-0.137D-04-0.248D-03-0.198D-02-0.539D-02
 Coeff-Com:  0.120D-01 0.211D+00 0.784D+00
 Coeff:     -0.128D-08-0.878D-09-0.248D-08 0.512D-10 0.525D-07 0.441D-06
 Coeff:      0.259D-05 0.130D-04-0.137D-04-0.248D-03-0.198D-02-0.539D-02
 Coeff:      0.120D-01 0.211D+00 0.784D+00
 Gap=     0.248 Goal=   None    Shift=    0.000
 RMSDP=2.49D-11 MaxDP=1.98D-09 DE=-3.64D-12 OVMax= 2.98D-11

 Cycle  18  Pass 1  IDiag  1:
 E= -616.893062725410     Delta-E=        0.000000000001 Rises=F Damp=F
 DIIS: error= 2.74D-12 at cycle  18 NSaved=  16.
 NSaved=16 IEnMin=15 EnMin= -616.893062725410     IErMin=16 ErrMin= 2.74D-12
 ErrMax= 2.74D-12 EMaxC= 1.00D-01 BMatC= 5.35D-22 BMatP= 1.02D-20
 IDIUse=1 WtCom= 1.00D+00 WtEn= 0.00D+00
 Large coefficients: NSaved= 16 BigCof=    0.00 CofMax=   10.00 Det=-5.00D-21
 Inversion failed.  Reducing to 15 matrices.
 Coeff-Com:  0.442D-10 0.129D-08 0.213D-08 0.148D-07 0.426D-07 0.235D-06
 Coeff-Com:  0.943D-06-0.626D-05-0.317D-04-0.236D-03-0.831D-03-0.384D-03
 Coeff-Com:  0.289D-01 0.181D+00 0.792D+00
 Coeff:      0.442D-10 0.129D-08 0.213D-08 0.148D-07 0.426D-07 0.235D-06
 Coeff:      0.943D-06-0.626D-05-0.317D-04-0.236D-03-0.831D-03-0.384D-03
 Coeff:      0.289D-01 0.181D+00 0.792D+00
 Gap=     0.248 Goal=   None    Shift=    0.000
 RMSDP=2.27D-11 MaxDP=1.56D-09 DE= 5.68D-13 OVMax= 7.14D-12

 Cycle  19  Pass 1  IDiag  1:
 E= -616.893062725408     Delta-E=        0.000000000002 Rises=F Damp=F
 DIIS: error= 2.93D-12 at cycle  19 NSaved=  16.
 NSaved=16 IEnMin=14 EnMin= -616.893062725410     IErMin=15 ErrMin= 2.74D-12
 ErrMax= 2.93D-12 EMaxC= 1.00D-01 BMatC= 1.87D-22 BMatP= 5.35D-22
 IDIUse=1 WtCom= 1.00D+00 WtEn= 0.00D+00
 Large coefficients: NSaved= 16 BigCof=    0.00 CofMax=   10.00 Det=-6.31D-22
 Inversion failed.  Reducing to 15 matrices.
 Coeff-Com:  0.426D-09 0.286D-09 0.257D-08 0.241D-08 0.677D-07 0.700D-06
 Coeff-Com:  0.763D-06-0.480D-05-0.733D-04-0.343D-03-0.114D-02 0.593D-02
 Coeff-Com:  0.569D-01 0.313D+00 0.625D+00
 Coeff:      0.426D-09 0.286D-09 0.257D-08 0.241D-08 0.677D-07 0.700D-06
 Coeff:      0.763D-06-0.480D-05-0.733D-04-0.343D-03-0.114D-02 0.593D-02
 Coeff:      0.569D-01 0.313D+00 0.625D+00
 Gap=     0.248 Goal=   None    Shift=    0.000
 RMSDP=7.69D-12 MaxDP=4.29D-10 DE= 1.93D-12 OVMax= 3.09D-12

 SCF Done:  E(RB3LYP) =  -616.893062725     A.U. after   19 cycles
             Convg  =    0.7688D-11             -V/T =  2.0031
 KE= 6.149723458448D+02 PE=-1.879106178438D+03 EE= 4.360461322962D+02
 Leave Link  502 at Wed Jul 10 16:54:31 2013, MaxMem=  131072000 cpu:     253.8
 (Enter /cerebro/home/software/apps/g09/l801.exe)
 Range of M.O.s used for correlation:     1   167
 NBasis=   167 NAE=    24 NBE=    24 NFC=     0 NFV=     0
 NROrb=    167 NOA=    24 NOB=    24 NVA=   143 NVB=   143

 **** Warning!!: The largest alpha MO coefficient is  0.56858110D+02

 Leave Link  801 at Wed Jul 10 16:54:32 2013, MaxMem=  131072000 cpu:       0.0
 (Enter /cerebro/home/software/apps/g09/l1002.exe)
 Minotr:  Closed shell wavefunction.
          Direct CPHF calculation.
          Differentiating once with respect to magnetic field using GIAOs.
          Electric field/nuclear overlap derivatives assumed to be zero.
          Requested convergence is 1.0D-11 RMS, and 1.0D-10 maximum.
          NewPWx=F KeepS1=T KeepF1=T KeepIn=T MapXYZ=F SortEE=F KeepMc=T.
          MDV=     131071900 using IRadAn=       4.
 Generate precomputed XC quadrature information.
          Solving linear equations separately, MaxMat=       0.
          Doing perturbations at frequencies    0.071980    0.077357    0.104503    0.128347
 FoFCou: FMM=F IPFlag=           0 FMFlag=           0 FMFlg1=           0
         NFxFlg=           0 DoJE=F BraDBF=F KetDBF=T FulRan=T
         Omega=  0.000000  0.000000  1.000000  0.000000  0.000000 ICntrl=    6100 IOpCl=  0
         NMat0=    1 NMatS0=    1 NMatT0=    0 NMatD0=    1 NMtDS0=    0 NMtDT0=    0
         I1Cent=           7 NGrid=          12.
 Symmetry not used in FoFCou.
 Integrals replicated using symmetry in FoFDir.
 MinBra= 0 MaxBra= 2 Meth= 1.
 IRaf=       0 NMat=  24 IRICut=      30 DoRegI=T DoRafI=T ISym2E= 2 JSym2E=2.
 CalDSu exits because no D1Ps are significant.
          There are    12 degrees of freedom in the 1st order CPHF.  IDoFFX=0.
 LinEq1:  Iter=  0 NonCon=    12 RMS=5.69D-02 Max=1.42D+00
 AX will form    12 AO Fock derivatives at one time.
 LinEq1:  Iter=  1 NonCon=    12 RMS=1.61D-02 Max=7.80D-01
 LinEq1:  Iter=  2 NonCon=    12 RMS=1.25D-02 Max=6.77D-01
 LinEq1:  Iter=  3 NonCon=    12 RMS=6.44D-03 Max=1.70D-01
 LinEq1:  Iter=  4 NonCon=    12 RMS=4.06D-03 Max=8.72D-02
 LinEq1:  Iter=  5 NonCon=    12 RMS=1.71D-03 Max=5.07D-02
 LinEq1:  Iter=  6 NonCon=    12 RMS=8.65D-04 Max=1.51D-02
 LinEq1:  Iter=  7 NonCon=    12 RMS=3.28D-04 Max=6.42D-03
 LinEq1:  Iter=  8 NonCon=    12 RMS=1.45D-04 Max=2.72D-03
 LinEq1:  Iter=  9 NonCon=    12 RMS=5.64D-05 Max=1.01D-03
 LinEq1:  Iter= 10 NonCon=    12 RMS=2.19D-05 Max=3.26D-04
 LinEq1:  Iter= 11 NonCon=    12 RMS=8.02D-06 Max=1.80D-04
 LinEq1:  Iter= 12 NonCon=    12 RMS=4.24D-06 Max=5.90D-05
 LinEq1:  Iter= 13 NonCon=    12 RMS=1.41D-06 Max=2.79D-05
 LinEq1:  Iter= 14 NonCon=    12 RMS=4.31D-07 Max=7.87D-06
 LinEq1:  Iter= 15 NonCon=    12 RMS=1.18D-07 Max=3.30D-06
 LinEq1:  Iter= 16 NonCon=    12 RMS=3.46D-08 Max=6.52D-07
 LinEq1:  Iter= 17 NonCon=    12 RMS=1.22D-08 Max=2.82D-07
 LinEq1:  Iter= 18 NonCon=    12 RMS=2.56D-09 Max=5.72D-08
 LinEq1:  Iter= 19 NonCon=    12 RMS=6.86D-10 Max=1.99D-08
 LinEq1:  Iter= 20 NonCon=    12 RMS=1.95D-10 Max=4.40D-09
 LinEq1:  Iter= 21 NonCon=     8 RMS=6.32D-11 Max=2.12D-09
 LinEq1:  Iter= 22 NonCon=     3 RMS=1.40D-11 Max=2.96D-10
 LinEq1:  Iter= 23 NonCon=     0 RMS=4.43D-12 Max=6.66D-11
 Linear equations converged to 1.000D-11 1.000D-10 after    23 iterations.
 FullF1:  Do perturbations    1 to    12.
 Dipole-magnetic dipole polarizability for W=    0.071980:
                 1             2             3 
      1   0.449151D+01 -0.157250D+01 -0.761103D+01
      2  -0.722082D+01 -0.489515D+01 -0.191008D+02
      3   0.244198D+02  0.950187D+01  0.153925D+01
 w=    0.071980 a.u., Optical Rotation Beta=     -0.3785 au.
 Molar Mass =     90.5523 grams/mole, [Alpha] ( 6330.0 A) =     -140.04 deg.
 Dipole-magnetic dipole polarizability for W=    0.077357:
                 1             2             3 
      1   0.455911D+01 -0.156275D+01 -0.760108D+01
      2  -0.734551D+01 -0.494267D+01 -0.191722D+02
      3   0.246209D+02  0.957974D+01  0.156150D+01
 w=    0.077357 a.u., Optical Rotation Beta=     -0.3926 au.
 Molar Mass =     90.5523 grams/mole, [Alpha] ( 5890.0 A) =     -167.77 deg.
 Dipole-magnetic dipole polarizability for W=    0.104503:
                 1             2             3 
      1   0.502876D+01 -0.148519D+01 -0.752443D+01
      2  -0.819352D+01 -0.525533D+01 -0.196333D+02
      3   0.260092D+02  0.101177D+02  0.171624D+01
 w=    0.104503 a.u., Optical Rotation Beta=     -0.4966 au.
 Molar Mass =     90.5523 grams/mole, [Alpha] ( 4360.0 A) =     -387.21 deg.
 Dipole-magnetic dipole polarizability for W=    0.128347:
                 1             2             3 
      1   0.570262D+01 -0.134914D+01 -0.739905D+01
      2  -0.935040D+01 -0.565458D+01 -0.202047D+02
      3   0.279835D+02  0.108823D+02  0.193822D+01
 w=    0.128347 a.u., Optical Rotation Beta=     -0.6621 au.
 Molar Mass =     90.5523 grams/mole, [Alpha] ( 3550.0 A) =     -778.77 deg.
 End of Minotr Frequency-dependent properties on file   721 Mask=       2 NFrqRd=     4 NDeriv=     1 LenFil=      42:
 Frequencies=    0.071980    0.077357    0.104503    0.128347
 Property number 2 -- FD Optical Rotation Tensor frequency  1    0.071980:
                 1             2             3 
      1   0.449151D+01 -0.157250D+01 -0.761103D+01
      2  -0.722082D+01 -0.489515D+01 -0.191008D+02
      3   0.244198D+02  0.950187D+01  0.153925D+01
 Property number 2 -- FD Optical Rotation Tensor frequency  2    0.077357:
                 1             2             3 
      1   0.455911D+01 -0.156275D+01 -0.760108D+01
      2  -0.734551D+01 -0.494267D+01 -0.191722D+02
      3   0.246209D+02  0.957974D+01  0.156150D+01
 Property number 2 -- FD Optical Rotation Tensor frequency  3    0.104503:
                 1             2             3 
      1   0.502876D+01 -0.148519D+01 -0.752443D+01
      2  -0.819352D+01 -0.525533D+01 -0.196333D+02
      3   0.260092D+02  0.101177D+02  0.171624D+01
 Property number 2 -- FD Optical Rotation Tensor frequency  4    0.128347:
                 1             2             3 
      1   0.570262D+01 -0.134914D+01 -0.739905D+01
      2  -0.935040D+01 -0.565458D+01 -0.202047D+02
      3   0.279835D+02  0.108823D+02  0.193822D+01
 End of Minotr Frequency-dependent properties file   722 does not exist.
 Leave Link 1002 at Wed Jul 10 17:19:19 2013, MaxMem=  131072000 cpu:    1487.5
 (Enter /cerebro/home/software/apps/g09/l601.exe)
 Copying SCF densities to generalized density rwf, IOpCl= 0 IROHF=0.

 **********************************************************************

            Population analysis using the SCF density.

 **********************************************************************

 Orbital symmetries:
       Occupied  (A) (A) (A) (A) (A) (A) (A) (A) (A) (A) (A) (A)
                 (A) (A) (A) (A) (A) (A) (A) (A) (A) (A) (A) (A)
       Virtual   (A) (A) (A) (A) (A) (A) (A) (A) (A) (A) (A) (A)
                 (A) (A) (A) (A) (A) (A) (A) (A) (A) (A) (A) (A)
                 (A) (A) (A) (A) (A) (A) (A) (A) (A) (A) (A) (A)
                 (A) (A) (A) (A) (A) (A) (A) (A) (A) (A) (A) (A)
                 (A) (A) (A) (A) (A) (A) (A) (A) (A) (A) (A) (A)
                 (A) (A) (A) (A) (A) (A) (A) (A) (A) (A) (A) (A)
                 (A) (A) (A) (A) (A) (A) (A) (A) (A) (A) (A) (A)
                 (A) (A) (A) (A) (A) (A) (A) (A) (A) (A) (A) (A)
                 (A) (A) (A) (A) (A) (A) (A) (A) (A) (A) (A) (A)
                 (A) (A) (A) (A) (A) (A) (A) (A) (A) (A) (A) (A)
                 (A) (A) (A) (A) (A) (A) (A) (A) (A) (A) (A) (A)
                 (A) (A) (A) (A) (A) (A) (A) (A) (A) (A) (A)
 The electronic state is 1-A.
 Alpha  occ. eigenvalues -- -101.53400 -10.24955 -10.19282 -10.18393 -10.18364
 Alpha  occ. eigenvalues --   -9.44835  -7.21272  -7.20328  -7.20307  -0.86547
 Alpha  occ. eigenvalues --   -0.78878  -0.73588  -0.64228  -0.57787  -0.48421
 Alpha  occ. eigenvalues --   -0.47450  -0.44209  -0.40892  -0.40530  -0.37987
 Alpha  occ. eigenvalues --   -0.36802  -0.30545  -0.29588  -0.28151
 Alpha virt. eigenvalues --   -0.03340  -0.00773   0.00585   0.00702   0.02352
 Alpha virt. eigenvalues --    0.02869   0.03887   0.04087   0.06293   0.06476
 Alpha virt. eigenvalues --    0.07221   0.08368   0.08750   0.09793   0.10963
 Alpha virt. eigenvalues --    0.11582   0.11837   0.12184   0.12875   0.13045
 Alpha virt. eigenvalues --    0.13548   0.14178   0.15017   0.15723   0.16013
 Alpha virt. eigenvalues --    0.16536   0.17113   0.18805   0.19104   0.21037
 Alpha virt. eigenvalues --    0.21600   0.22670   0.24614   0.26076   0.26811
 Alpha virt. eigenvalues --    0.28344   0.33823   0.35661   0.39105   0.42431
 Alpha virt. eigenvalues --    0.43336   0.45289   0.46320   0.48024   0.48588
 Alpha virt. eigenvalues --    0.49483   0.52457   0.52870   0.56573   0.58722
 Alpha virt. eigenvalues --    0.59643   0.61685   0.63823   0.64143   0.65153
 Alpha virt. eigenvalues --    0.66128   0.69552   0.70080   0.73339   0.73851
 Alpha virt. eigenvalues --    0.78337   0.81682   0.83401   0.86333   0.89328
 Alpha virt. eigenvalues --    0.90598   0.94699   0.95666   1.00952   1.02810
 Alpha virt. eigenvalues --    1.06140   1.08332   1.12914   1.17745   1.19359
 Alpha virt. eigenvalues --    1.27278   1.39576   1.42911   1.44990   1.47164
 Alpha virt. eigenvalues --    1.50826   1.54603   1.55843   1.57146   1.59280
 Alpha virt. eigenvalues --    1.62459   1.66879   1.69173   1.69752   1.72204
 Alpha virt. eigenvalues --    1.76304   1.78211   1.87506   1.89151   1.93548
 Alpha virt. eigenvalues --    1.97945   2.01352   2.06820   2.12603   2.18067
 Alpha virt. eigenvalues --    2.18882   2.20413   2.24849   2.28968   2.29908
 Alpha virt. eigenvalues --    2.34874   2.36424   2.45061   2.46001   2.49447
 Alpha virt. eigenvalues --    2.51330   2.55822   2.57466   2.57872   2.60071
 Alpha virt. eigenvalues --    2.64648   2.72743   2.73073   2.74673   2.77170
 Alpha virt. eigenvalues --    2.84438   2.85431   2.93401   3.05752   3.09904
 Alpha virt. eigenvalues --    3.17402   3.38945   3.50744   3.71690   3.77073
 Alpha virt. eigenvalues --    3.77787   3.94935   4.09639   4.27568   9.75633
 Alpha virt. eigenvalues --   23.70577  23.79451  23.93502  24.26683  25.92895
 Alpha virt. eigenvalues --   25.96818  26.44111 215.74598
          Condensed to atoms (all electrons):
              1          2          3          4          5          6
     1  C    5.402094   0.127182   0.023184   0.102929  -0.002582   0.377770
     2  C    0.127182   5.433539   0.036021  -0.141369  -0.025083  -0.052883
     3  C    0.023184   0.036021   5.293206   0.445815  -0.045954   0.020285
     4  C    0.102929  -0.141369   0.445815   5.401246   0.394697  -0.011146
     5  H   -0.002582  -0.025083  -0.045954   0.394697   0.559916   0.000594
     6  H    0.377770  -0.052883   0.020285  -0.011146   0.000594   0.544443
     7  H    0.001730   0.020968  -0.010568   0.384364  -0.037566   0.000301
     8  H   -0.019120  -0.005374   0.324178  -0.030331   0.015151  -0.001754
     9  H   -0.048535   0.464892  -0.135152   0.006346   0.013259  -0.001262
    10  H    0.391033  -0.017592  -0.033596  -0.001893   0.001813  -0.016942
    11  H    0.368802  -0.051847   0.015460   0.004173  -0.001023  -0.030652
    12  Cl  -0.059115   0.034263  -0.007644   0.069246   0.001131   0.015071
              7          8          9         10         11         12
     1  C    0.001730  -0.019120  -0.048535   0.391033   0.368802  -0.059115
     2  C    0.020968  -0.005374   0.464892  -0.017592  -0.051847   0.034263
     3  C   -0.010568   0.324178  -0.135152  -0.033596   0.015460  -0.007644
     4  C    0.384364  -0.030331   0.006346  -0.001893   0.004173   0.069246
     5  H   -0.037566   0.015151   0.013259   0.001813  -0.001023   0.001131
     6  H    0.000301  -0.001754  -0.001262  -0.016942  -0.030652   0.015071
     7  H    0.538195  -0.020874  -0.003407  -0.000670   0.000365  -0.004678
     8  H   -0.020874   0.543782   0.006934   0.003749  -0.002723   0.018560
     9  H   -0.003407   0.006934   0.512679   0.006190  -0.011457  -0.037367
    10  H   -0.000670   0.003749   0.006190   0.532690  -0.033534   0.010963
    11  H    0.000365  -0.002723  -0.011457  -0.033534   0.588242   0.019782
    12  Cl  -0.004678   0.018560  -0.037367   0.010963   0.019782  17.002958
 Mulliken atomic charges:
              1
     1  C   -0.665371
     2  C    0.177283
     3  C    0.074765
     4  C   -0.624076
     5  H    0.125648
     6  H    0.156176
     7  H    0.131842
     8  H    0.167823
     9  H    0.226880
    10  H    0.157789
    11  H    0.134412
    12  Cl  -0.063171
 Sum of Mulliken atomic charges =   0.00000
 Mulliken charges with hydrogens summed into heavy atoms:
              1
     1  C   -0.216994
     2  C    0.404164
     3  C    0.242588
     4  C   -0.366587
    12  Cl  -0.063171
 Sum of Mulliken charges with hydrogens summed into heavy atoms =   0.00000
 Electronic spatial extent (au):  <R**2>=            630.2849
 Charge=              0.0000 electrons
 Dipole moment (field-independent basis, Debye):
    X=             -1.7339    Y=              1.5458    Z=             -0.3206  Tot=              2.3449
 Quadrupole moment (field-independent basis, Debye-Ang):
   XX=            -39.4347   YY=            -40.2157   ZZ=            -36.9591
   XY=              2.4401   XZ=              0.1939   YZ=             -0.1141
 Traceless Quadrupole moment (field-independent basis, Debye-Ang):
   XX=             -0.5648   YY=             -1.3459   ZZ=              1.9107
   XY=              2.4401   XZ=              0.1939   YZ=             -0.1141
 Octapole moment (field-independent basis, Debye-Ang**2):
  XXX=             -1.4506  YYY=              1.1133  ZZZ=             -0.3541  XYY=              4.6828
  XXY=             -4.6535  XXZ=              0.2887  XZZ=             -1.1310  YZZ=             -0.1474
  YYZ=              0.1167  XYZ=             -0.2798
 Hexadecapole moment (field-independent basis, Debye-Ang**3):
 XXXX=           -490.0399 YYYY=           -282.3040 ZZZZ=            -81.2456 XXXY=              8.8288
 XXXZ=             -1.9541 YYYX=             -6.9202 YYYZ=             -1.1684 ZZZX=              1.3277
 ZZZY=              1.4921 XXYY=           -130.0485 XXZZ=            -95.3191 YYZZ=            -61.3080
 XXYZ=             -3.2293 YYXZ=              1.1622 ZZXY=              1.8430
 N-N= 2.111946375720D+02 E-N=-1.879106178438D+03  KE= 6.149723458448D+02
 No NMR shielding tensors so no spin-rotation constants.
 Leave Link  601 at Wed Jul 10 17:19:20 2013, MaxMem=  131072000 cpu:       0.3
 (Enter /cerebro/home/software/apps/g09/l9999.exe)
 AllDun Frequency-dependent properties on file 20721 Mask=       2 NFrqRd=     4 NDeriv=     1 LenFil=      42:
 Frequencies=    0.071980    0.077357    0.104503    0.128347
 Property number 2 -- FD Optical Rotation Tensor frequency  1    0.071980:
                 1             2             3 
      1   0.446949D+01 -0.153524D+01 -0.755973D+01
      2  -0.726624D+01 -0.487043D+01 -0.191728D+02
      3   0.243661D+02  0.953065D+01  0.153655D+01
 Property number 2 -- FD Optical Rotation Tensor frequency  2    0.077357:
                 1             2             3 
      1   0.453683D+01 -0.152545D+01 -0.754941D+01
      2  -0.739143D+01 -0.491830D+01 -0.192449D+02
      3   0.245664D+02  0.960873D+01  0.155941D+01
 Property number 2 -- FD Optical Rotation Tensor frequency  3    0.104503:
                 1             2             3 
      1   0.500458D+01 -0.144764D+01 -0.747029D+01
      2  -0.824304D+01 -0.523339D+01 -0.197104D+02
      3   0.259499D+02  0.101482D+02  0.171849D+01
 Property number 2 -- FD Optical Rotation Tensor frequency  4    0.128347:
                 1             2             3 
      1   0.567549D+01 -0.131143D+01 -0.734148D+01
      2  -0.940537D+01 -0.563633D+01 -0.202878D+02
      3   0.279176D+02  0.109153D+02  0.194711D+01
 1\1\GINC-COMPUTE-0-108\SP\RB3LYP\6-311++G(d,p)\C4H7Cl1\CRAWDAD\10-Jul-
 2013\0\\#P B3LYP/6-311++G** scf(conver=11) int=ultrafine polar=optrot 
 cphf(rdfreq,conver=11)\\(R)-3-chloro-1-butene tau=120\\0,1\C,0,0.48253
 419,1.76469328,0.05608566\C,0,-0.01102892,0.32552314,-0.33758611\C,0,-
 1.2059743,-0.09386699,0.42679942\C,0,-2.32661414,-0.49640532,-0.159517
 93\H,0,-2.4429605,-0.54860145,-1.23743047\H,0,1.36215581,2.05385284,-0
 .52395994\H,0,-3.17768992,-0.79081839,0.44351383\H,0,-1.12238894,-0.05
 624493,1.5094472\H,0,-0.20876365,0.26170991,-1.40935809\H,0,0.68362886
 ,1.9121389,1.12119614\H,0,-0.33140019,2.43992185,-0.23785691\Cl,0,1.38
 68056,-0.83680907,0.02389032\\Version=EM64L-G09RevA.02\State=1-A\HF=-6
 16.8930627\RMSD=7.688e-12\Dipole=-0.6834495,0.6069659,-0.124954\Quadru
 pole=-0.4304397,-0.9900553,1.420495,1.8151939,0.1485011,-0.0916522\PG=
 C01 [X(C4H7Cl1)]\\@


 IT IS A PROFOUNDLY ERRONEOUS TRUISM ... THAT WE SHOULD CULTIVATE
 THE HABIT OF THINKING OF WHAT WE ARE DOING.
 THE PRECISE OPPOSITE IS THE CASE.
 CIVILIZATION ADVANCES BY EXTENDING THE NUMBER OF IMPORTANT OPERATIONS
 WHICH WE CAN PERFORM WITHOUT THINKING ABOUT THEM.

                                    -- ALFRED NORTH WHITEHEAD
 Job cpu time:  0 days  0 hours 29 minutes 10.4 seconds.
 File lengths (MBytes):  RWF=    119 Int=      0 D2E=      0 Chk=      2 Scr=      1
 Normal termination of Gaussian 09 at Wed Jul 10 17:19:20 2013.
