(R)-3-chloro-1-butene tau=120                                           
SP        RB3LYP                                                      6-311++G(d,p)       
Number of atoms                            I               12
Info1-9                                    I   N=           9
          26          26           0           0           0         110
           1          18        -502
Full Title                                 C   N=           3
(R)-3-chloro-1-butene tau=120       
Route                                      C   N=           7
#P B3LYP/6-311++G** scf(conver=11) int=ultrafine polar=optro
t cphf(rdfreq,conver=11)
Charge                                     I                0
Multiplicity                               I                1
Number of electrons                        I               48
Number of alpha electrons                  I               24
Number of beta electrons                   I               24
Number of basis functions                  I              167
Number of independent functions            I              167
Number of point charges in /Mol/           I                0
Number of translation vectors              I                0
Atomic numbers                             I   N=          12
           6           6           6           6           1           1
           1           1           1           1           1          17
Nuclear charges                            R   N=          12
  6.00000000E+00  6.00000000E+00  6.00000000E+00  6.00000000E+00  1.00000000E+00
  1.00000000E+00  1.00000000E+00  1.00000000E+00  1.00000000E+00  1.00000000E+00
  1.00000000E+00  1.70000000E+01
Current cartesian coordinates              R   N=          36
  9.22132194E-01  3.33101582E+00  8.73385619E-02 -1.98265641E-02  6.10194424E-01
 -6.40421369E-01 -2.27611996E+00 -1.69043417E-01  8.14109642E-01 -4.39884196E+00
 -9.29595774E-01 -2.84315510E-01 -4.62449601E+00 -1.03784325E+00 -2.32015330E+00
  2.58284432E+00  3.86749799E+00 -1.01600208E+00 -6.00551918E+00 -1.47593241E+00
  8.62366038E-01 -2.11242387E+00 -8.81258780E-02  2.85920097E+00 -3.99308222E-01
  4.80464185E-01 -2.66412977E+00  1.30835012E+00  3.61870578E+00  2.09764895E+00
 -6.14077757E-01  4.60832973E+00 -4.70367899E-01  2.61768049E+00 -1.58991309E+00
  4.65393609E-02
Number of symbols in /Mol/                 I                0
Force Field                                I                0
Atom Types                                 C   N=          12
                                                            
                                                            
                        
Int Atom Types                             I   N=          12
           0           0           0           0           0           0
           0           0           0           0           0           0
MM charges                                 R   N=          12
  0.00000000E+00  0.00000000E+00  0.00000000E+00  0.00000000E+00  0.00000000E+00
  0.00000000E+00  0.00000000E+00  0.00000000E+00  0.00000000E+00  0.00000000E+00
  0.00000000E+00  0.00000000E+00
Integer atomic weights                     I   N=          12
          12          12          12          12           1           1
           1           1           1           1           1          35
Real atomic weights                        R   N=          12
  1.20000000E+01  1.20000000E+01  1.20000000E+01  1.20000000E+01  1.00782504E+00
  1.00782504E+00  1.00782504E+00  1.00782504E+00  1.00782504E+00  1.00782504E+00
  1.00782504E+00  3.49688527E+01
Atom fragment info                         I   N=          12
           0           0           0           0           0           0
           0           0           0           0           0           0
Atom residue num                           I   N=          12
           0           0           0           0           0           0
           0           0           0           0           0           0
Nuclear spins                              I   N=          12
           0           0           0           0           1           1
           1           1           1           1           1           3
Nuclear ZEff                               R   N=          12
 -3.60000000E+00 -3.60000000E+00 -3.60000000E+00 -3.60000000E+00 -1.00000000E+00
 -1.00000000E+00 -1.00000000E+00 -1.00000000E+00 -1.00000000E+00 -1.00000000E+00
 -1.00000000E+00 -1.42400000E+01
Nuclear ZNuc                               R   N=          12
  6.00000000E+00  6.00000000E+00  6.00000000E+00  6.00000000E+00  1.00000000E+00
  1.00000000E+00  1.00000000E+00  1.00000000E+00  1.00000000E+00  1.00000000E+00
  1.00000000E+00  1.70000000E+01
Nuclear QMom                               R   N=          12
  0.00000000E+00  0.00000000E+00  0.00000000E+00  0.00000000E+00  0.00000000E+00
  0.00000000E+00  0.00000000E+00  0.00000000E+00  0.00000000E+00  0.00000000E+00
  0.00000000E+00 -8.16500000E+00
Nuclear GFac                               R   N=          12
  0.00000000E+00  0.00000000E+00  0.00000000E+00  0.00000000E+00  2.79284600E+00
  2.79284600E+00  2.79284600E+00  2.79284600E+00  2.79284600E+00  2.79284600E+00
  2.79284600E+00  8.21874000E-01
MicOpt                                     I   N=          12
          -1          -1          -1          -1          -1          -1
          -1          -1          -1          -1          -1          -1
Number of residues                         I                0
Number of secondary structures             I                0
SymInf integers                            I   N=          26
           1           1           1           1           1           0
           0           0           0           0           0           0
           0           0           0           0           0           0
           0           0           0           0           0           0
           0           0
RotTr to input orientation                 R   N=          12
  9.99992765E-01  2.66459402E-03  2.71485824E-03 -2.67816699E-03  9.99983873E-01
  5.00820274E-03 -2.70146963E-03 -5.01543735E-03  9.99983774E-01 -1.11109401E-03
  1.80583804E-03 -5.36468053E-04
Number of contracted shells                I               72
Number of primitive shells                 I              126
Pure/Cartesian d shells                    I                0
Pure/Cartesian f shells                    I                0
Highest angular momentum                   I                2
Largest degree of contraction              I                6
Shell types                                I   N=          72
           0          -1          -1          -1          -1          -2
           0          -1          -1          -1          -1          -2
           0          -1          -1          -1          -1          -2
           0          -1          -1          -1          -1          -2
           0           0           0           0           1           0
           0           0           0           1           0           0
           0           0           1           0           0           0
           0           1           0           0           0           0
           1           0           0           0           0           1
           0           0           0           0           1           0
           0           0           0           0           0          -1
           1           1           1           1           1          -2
Number of primitives per shell             I   N=          72
           6           3           1           1           1           1
           6           3           1           1           1           1
           6           3           1           1           1           1
           6           3           1           1           1           1
           3           1           1           1           1           3
           1           1           1           1           3           1
           1           1           1           3           1           1
           1           1           3           1           1           1
           1           3           1           1           1           1
           3           1           1           1           1           6
           3           1           1           1           1           1
           5           2           1           1           1           1
Shell to atom map                          I   N=          72
           1           1           1           1           1           1
           2           2           2           2           2           2
           3           3           3           3           3           3
           4           4           4           4           4           4
           5           5           5           5           5           6
           6           6           6           6           7           7
           7           7           7           8           8           8
           8           8           9           9           9           9
           9          10          10          10          10          10
          11          11          11          11          11          12
          12          12          12          12          12          12
          12          12          12          12          12          12
Primitive exponents                        R   N=         126
  4.56324000E+03  6.82024000E+02  1.54973000E+02  4.44553000E+01  1.30290000E+01
  1.82773000E+00  2.09642000E+01  4.80331000E+00  1.45933000E+00  4.83456000E-01
  1.45585000E-01  4.38000000E-02  6.26000000E-01  4.56324000E+03  6.82024000E+02
  1.54973000E+02  4.44553000E+01  1.30290000E+01  1.82773000E+00  2.09642000E+01
  4.80331000E+00  1.45933000E+00  4.83456000E-01  1.45585000E-01  4.38000000E-02
  6.26000000E-01  4.56324000E+03  6.82024000E+02  1.54973000E+02  4.44553000E+01
  1.30290000E+01  1.82773000E+00  2.09642000E+01  4.80331000E+00  1.45933000E+00
  4.83456000E-01  1.45585000E-01  4.38000000E-02  6.26000000E-01  4.56324000E+03
  6.82024000E+02  1.54973000E+02  4.44553000E+01  1.30290000E+01  1.82773000E+00
  2.09642000E+01  4.80331000E+00  1.45933000E+00  4.83456000E-01  1.45585000E-01
  4.38000000E-02  6.26000000E-01  3.38650000E+01  5.09479000E+00  1.15879000E+00
  3.25840000E-01  1.02741000E-01  3.60000000E-02  7.50000000E-01  3.38650000E+01
  5.09479000E+00  1.15879000E+00  3.25840000E-01  1.02741000E-01  3.60000000E-02
  7.50000000E-01  3.38650000E+01  5.09479000E+00  1.15879000E+00  3.25840000E-01
  1.02741000E-01  3.60000000E-02  7.50000000E-01  3.38650000E+01  5.09479000E+00
  1.15879000E+00  3.25840000E-01  1.02741000E-01  3.60000000E-02  7.50000000E-01
  3.38650000E+01  5.09479000E+00  1.15879000E+00  3.25840000E-01  1.02741000E-01
  3.60000000E-02  7.50000000E-01  3.38650000E+01  5.09479000E+00  1.15879000E+00
  3.25840000E-01  1.02741000E-01  3.60000000E-02  7.50000000E-01  3.38650000E+01
  5.09479000E+00  1.15879000E+00  3.25840000E-01  1.02741000E-01  3.60000000E-02
  7.50000000E-01  1.05819000E+05  1.58720000E+04  3.61965000E+03  1.03080000E+03
  3.39908000E+02  1.24538000E+02  1.24538000E+02  4.95135000E+01  2.08056000E+01
  6.58346000E+00  2.56468000E+00  5.59763000E-01  1.83273000E-01  4.83000000E-02
  5.89776000E+02  1.39849000E+02  4.51413000E+01  1.68733000E+01  2.77152000E+00
  6.74110000E+00  2.77152000E+00  1.02387000E+00  3.81368000E-01  1.09437000E-01
  7.50000000E-01
Contraction coefficients                   R   N=         126
  1.96665025E-03  1.52306019E-02  7.61269097E-02  2.60801033E-01  6.16462078E-01
  2.21006028E-01  1.14660081E-01  9.19999648E-01 -3.03068213E-03  1.00000000E+00
  1.00000000E+00  1.00000000E+00  1.00000000E+00  1.96665025E-03  1.52306019E-02
  7.61269097E-02  2.60801033E-01  6.16462078E-01  2.21006028E-01  1.14660081E-01
  9.19999648E-01 -3.03068213E-03  1.00000000E+00  1.00000000E+00  1.00000000E+00
  1.00000000E+00  1.96665025E-03  1.52306019E-02  7.61269097E-02  2.60801033E-01
  6.16462078E-01  2.21006028E-01  1.14660081E-01  9.19999648E-01 -3.03068213E-03
  1.00000000E+00  1.00000000E+00  1.00000000E+00  1.00000000E+00  1.96665025E-03
  1.52306019E-02  7.61269097E-02  2.60801033E-01  6.16462078E-01  2.21006028E-01
  1.14660081E-01  9.19999648E-01 -3.03068213E-03  1.00000000E+00  1.00000000E+00
  1.00000000E+00  1.00000000E+00  2.54938145E-02  1.90373109E-01  8.52161486E-01
  1.00000000E+00  1.00000000E+00  1.00000000E+00  1.00000000E+00  2.54938145E-02
  1.90373109E-01  8.52161486E-01  1.00000000E+00  1.00000000E+00  1.00000000E+00
  1.00000000E+00  2.54938145E-02  1.90373109E-01  8.52161486E-01  1.00000000E+00
  1.00000000E+00  1.00000000E+00  1.00000000E+00  2.54938145E-02  1.90373109E-01
  8.52161486E-01  1.00000000E+00  1.00000000E+00  1.00000000E+00  1.00000000E+00
  2.54938145E-02  1.90373109E-01  8.52161486E-01  1.00000000E+00  1.00000000E+00
  1.00000000E+00  1.00000000E+00  2.54938145E-02  1.90373109E-01  8.52161486E-01
  1.00000000E+00  1.00000000E+00  1.00000000E+00  1.00000000E+00  2.54938145E-02
  1.90373109E-01  8.52161486E-01  1.00000000E+00  1.00000000E+00  1.00000000E+00
  1.00000000E+00  7.38000247E-04  5.71800191E-03  2.94950099E-02  1.17286039E-01
  3.62949121E-01  5.84149195E-01  1.34176973E-01  6.24249876E-01  2.91755942E-01
  1.00000000E+00  1.00000000E+00  1.00000000E+00  1.00000000E+00  1.00000000E+00
  3.66556935E-03  2.83679194E-02  1.24756603E-01  3.39654631E-01  7.47585963E-01
 -1.57224381E+00  9.92388882E-01  1.00000000E+00  1.00000000E+00  1.00000000E+00
  1.00000000E+00
P(S=P) Contraction coefficients            R   N=         126
  0.00000000E+00  0.00000000E+00  0.00000000E+00  0.00000000E+00  0.00000000E+00
  0.00000000E+00  4.02486927E-02  2.37593957E-01  8.15853851E-01  1.00000000E+00
  1.00000000E+00  1.00000000E+00  0.00000000E+00  0.00000000E+00  0.00000000E+00
  0.00000000E+00  0.00000000E+00  0.00000000E+00  0.00000000E+00  4.02486927E-02
  2.37593957E-01  8.15853851E-01  1.00000000E+00  1.00000000E+00  1.00000000E+00
  0.00000000E+00  0.00000000E+00  0.00000000E+00  0.00000000E+00  0.00000000E+00
  0.00000000E+00  0.00000000E+00  4.02486927E-02  2.37593957E-01  8.15853851E-01
  1.00000000E+00  1.00000000E+00  1.00000000E+00  0.00000000E+00  0.00000000E+00
  0.00000000E+00  0.00000000E+00  0.00000000E+00  0.00000000E+00  0.00000000E+00
  4.02486927E-02  2.37593957E-01  8.15853851E-01  1.00000000E+00  1.00000000E+00
  1.00000000E+00  0.00000000E+00  0.00000000E+00  0.00000000E+00  0.00000000E+00
  0.00000000E+00  0.00000000E+00  0.00000000E+00  0.00000000E+00  0.00000000E+00
  0.00000000E+00  0.00000000E+00  0.00000000E+00  0.00000000E+00  0.00000000E+00
  0.00000000E+00  0.00000000E+00  0.00000000E+00  0.00000000E+00  0.00000000E+00
  0.00000000E+00  0.00000000E+00  0.00000000E+00  0.00000000E+00  0.00000000E+00
  0.00000000E+00  0.00000000E+00  0.00000000E+00  0.00000000E+00  0.00000000E+00
  0.00000000E+00  0.00000000E+00  0.00000000E+00  0.00000000E+00  0.00000000E+00
  0.00000000E+00  0.00000000E+00  0.00000000E+00  0.00000000E+00  0.00000000E+00
  0.00000000E+00  0.00000000E+00  0.00000000E+00  0.00000000E+00  0.00000000E+00
  0.00000000E+00  0.00000000E+00  0.00000000E+00  0.00000000E+00  0.00000000E+00
  0.00000000E+00  0.00000000E+00  0.00000000E+00  0.00000000E+00  0.00000000E+00
  0.00000000E+00  0.00000000E+00  0.00000000E+00  0.00000000E+00  0.00000000E+00
  0.00000000E+00  0.00000000E+00  0.00000000E+00  0.00000000E+00  1.00000000E+00
  0.00000000E+00  0.00000000E+00  0.00000000E+00  0.00000000E+00  0.00000000E+00
  0.00000000E+00  0.00000000E+00  0.00000000E+00  0.00000000E+00  0.00000000E+00
  0.00000000E+00
Coordinates of each shell                  R   N=         216
  9.22132194E-01  3.33101582E+00  8.73385619E-02  9.22132194E-01  3.33101582E+00
  8.73385619E-02  9.22132194E-01  3.33101582E+00  8.73385619E-02  9.22132194E-01
  3.33101582E+00  8.73385619E-02  9.22132194E-01  3.33101582E+00  8.73385619E-02
  9.22132194E-01  3.33101582E+00  8.73385619E-02 -1.98265641E-02  6.10194424E-01
 -6.40421369E-01 -1.98265641E-02  6.10194424E-01 -6.40421369E-01 -1.98265641E-02
  6.10194424E-01 -6.40421369E-01 -1.98265641E-02  6.10194424E-01 -6.40421369E-01
 -1.98265641E-02  6.10194424E-01 -6.40421369E-01 -1.98265641E-02  6.10194424E-01
 -6.40421369E-01 -2.27611996E+00 -1.69043417E-01  8.14109642E-01 -2.27611996E+00
 -1.69043417E-01  8.14109642E-01 -2.27611996E+00 -1.69043417E-01  8.14109642E-01
 -2.27611996E+00 -1.69043417E-01  8.14109642E-01 -2.27611996E+00 -1.69043417E-01
  8.14109642E-01 -2.27611996E+00 -1.69043417E-01  8.14109642E-01 -4.39884196E+00
 -9.29595774E-01 -2.84315510E-01 -4.39884196E+00 -9.29595774E-01 -2.84315510E-01
 -4.39884196E+00 -9.29595774E-01 -2.84315510E-01 -4.39884196E+00 -9.29595774E-01
 -2.84315510E-01 -4.39884196E+00 -9.29595774E-01 -2.84315510E-01 -4.39884196E+00
 -9.29595774E-01 -2.84315510E-01 -4.62449601E+00 -1.03784325E+00 -2.32015330E+00
 -4.62449601E+00 -1.03784325E+00 -2.32015330E+00 -4.62449601E+00 -1.03784325E+00
 -2.32015330E+00 -4.62449601E+00 -1.03784325E+00 -2.32015330E+00 -4.62449601E+00
 -1.03784325E+00 -2.32015330E+00  2.58284432E+00  3.86749799E+00 -1.01600208E+00
  2.58284432E+00  3.86749799E+00 -1.01600208E+00  2.58284432E+00  3.86749799E+00
 -1.01600208E+00  2.58284432E+00  3.86749799E+00 -1.01600208E+00  2.58284432E+00
  3.86749799E+00 -1.01600208E+00 -6.00551918E+00 -1.47593241E+00  8.62366038E-01
 -6.00551918E+00 -1.47593241E+00  8.62366038E-01 -6.00551918E+00 -1.47593241E+00
  8.62366038E-01 -6.00551918E+00 -1.47593241E+00  8.62366038E-01 -6.00551918E+00
 -1.47593241E+00  8.62366038E-01 -2.11242387E+00 -8.81258780E-02  2.85920097E+00
 -2.11242387E+00 -8.81258780E-02  2.85920097E+00 -2.11242387E+00 -8.81258780E-02
  2.85920097E+00 -2.11242387E+00 -8.81258780E-02  2.85920097E+00 -2.11242387E+00
 -8.81258780E-02  2.85920097E+00 -3.99308222E-01  4.80464185E-01 -2.66412977E+00
 -3.99308222E-01  4.80464185E-01 -2.66412977E+00 -3.99308222E-01  4.80464185E-01
 -2.66412977E+00 -3.99308222E-01  4.80464185E-01 -2.66412977E+00 -3.99308222E-01
  4.80464185E-01 -2.66412977E+00  1.30835012E+00  3.61870578E+00  2.09764895E+00
  1.30835012E+00  3.61870578E+00  2.09764895E+00  1.30835012E+00  3.61870578E+00
  2.09764895E+00  1.30835012E+00  3.61870578E+00  2.09764895E+00  1.30835012E+00
  3.61870578E+00  2.09764895E+00 -6.14077757E-01  4.60832973E+00 -4.70367899E-01
 -6.14077757E-01  4.60832973E+00 -4.70367899E-01 -6.14077757E-01  4.60832973E+00
 -4.70367899E-01 -6.14077757E-01  4.60832973E+00 -4.70367899E-01 -6.14077757E-01
  4.60832973E+00 -4.70367899E-01  2.61768049E+00 -1.58991309E+00  4.65393609E-02
  2.61768049E+00 -1.58991309E+00  4.65393609E-02  2.61768049E+00 -1.58991309E+00
  4.65393609E-02  2.61768049E+00 -1.58991309E+00  4.65393609E-02  2.61768049E+00
 -1.58991309E+00  4.65393609E-02  2.61768049E+00 -1.58991309E+00  4.65393609E-02
  2.61768049E+00 -1.58991309E+00  4.65393609E-02  2.61768049E+00 -1.58991309E+00
  4.65393609E-02  2.61768049E+00 -1.58991309E+00  4.65393609E-02  2.61768049E+00
 -1.58991309E+00  4.65393609E-02  2.61768049E+00 -1.58991309E+00  4.65393609E-02
  2.61768049E+00 -1.58991309E+00  4.65393609E-02  2.61768049E+00 -1.58991309E+00
  4.65393609E-02
Constraint Structure                       R   N=          36
  9.22132194E-01  3.33101582E+00  8.73385619E-02 -1.98265641E-02  6.10194424E-01
 -6.40421369E-01 -2.27611996E+00 -1.69043417E-01  8.14109642E-01 -4.39884196E+00
 -9.29595774E-01 -2.84315510E-01 -4.62449601E+00 -1.03784325E+00 -2.32015330E+00
  2.58284432E+00  3.86749799E+00 -1.01600208E+00 -6.00551918E+00 -1.47593241E+00
  8.62366038E-01 -2.11242387E+00 -8.81258780E-02  2.85920097E+00 -3.99308222E-01
  4.80464185E-01 -2.66412977E+00  1.30835012E+00  3.61870578E+00  2.09764895E+00
 -6.14077757E-01  4.60832973E+00 -4.70367899E-01  2.61768049E+00 -1.58991309E+00
  4.65393609E-02
Num ILSW                                   I              100
ILSW                                       I   N=         100
           0           0           0           0           2           0
           0           0           0           0         402          -1
           5           0           0           0           0           0
           0           0           0           0           0           0
           1           0           0           0           0           0
           0           0      100000           0          -1           0
           0           0           0           0           0           0
           0           0           0           1           0           0
           0           0           1           0           0           0
           0           0           4          41           0           0
           0           0           5           0           0           0
           0           0           0           0           0           0
           0           0           0           0           0           0
           0           0           0           0           0           0
           0           0           0           0           0           0
           0           0           0           0           0           0
           0           0           0           0
Num RLSW                                   I               41
RLSW                                       R   N=          41
  8.00000000E-01  7.20000000E-01  1.00000000E+00  8.10000000E-01  2.00000000E-01
  0.00000000E+00  0.00000000E+00  1.00000000E+00  0.00000000E+00  0.00000000E+00
  0.00000000E+00  0.00000000E+00  1.00000000E+00  0.00000000E+00  0.00000000E+00
  0.00000000E+00  0.00000000E+00  1.00000000E+00  0.00000000E+00  0.00000000E+00
  0.00000000E+00  0.00000000E+00  1.00000000E+00  0.00000000E+00  0.00000000E+00
  0.00000000E+00  0.00000000E+00  1.00000000E+00  0.00000000E+00  0.00000000E+00
  0.00000000E+00  0.00000000E+00  0.00000000E+00  0.00000000E+00  0.00000000E+00
  0.00000000E+00  0.00000000E+00  0.00000000E+00  1.00000000E+00  1.00000000E+00
  0.00000000E+00
MxBond                                     I                4
NBond                                      I   N=          12
           4           4           3           3           1           1
           1           1           1           1           1           1
IBond                                      I   N=          48
           2           6          10          11           1           3
           9          12           2           4           8           0
           3           5           7           0           4           0
           0           0           1           0           0           0
           4           0           0           0           3           0
           0           0           2           0           0           0
           1           0           0           0           1           0
           0           0           2           0           0           0
RBond                                      R   N=          48
  1.00000000E+00  1.00000000E+00  1.00000000E+00  1.00000000E+00  1.00000000E+00
  1.00000000E+00  1.00000000E+00  1.00000000E+00  1.00000000E+00  2.00000000E+00
  1.00000000E+00  0.00000000E+00  2.00000000E+00  1.00000000E+00  1.00000000E+00
  0.00000000E+00  1.00000000E+00  0.00000000E+00  0.00000000E+00  0.00000000E+00
  1.00000000E+00  0.00000000E+00  0.00000000E+00  0.00000000E+00  1.00000000E+00
  0.00000000E+00  0.00000000E+00  0.00000000E+00  1.00000000E+00  0.00000000E+00
  0.00000000E+00  0.00000000E+00  1.00000000E+00  0.00000000E+00  0.00000000E+00
  0.00000000E+00  1.00000000E+00  0.00000000E+00  0.00000000E+00  0.00000000E+00
  1.00000000E+00  0.00000000E+00  0.00000000E+00  0.00000000E+00  1.00000000E+00
  0.00000000E+00  0.00000000E+00  0.00000000E+00
Virial Ratio                               R      2.003123257319818E+00
SCF Energy                                 R     -6.168930627254078E+02
Total Energy                               R     -6.168930627254078E+02
RMS Density                                R      7.687750441445264E-12
Nuclear derivative order                   I                0
External E-field                           R   N=          35
  0.00000000E+00  0.00000000E+00  0.00000000E+00  0.00000000E+00  0.00000000E+00
  0.00000000E+00  0.00000000E+00  0.00000000E+00  0.00000000E+00  0.00000000E+00
  0.00000000E+00  0.00000000E+00  0.00000000E+00  0.00000000E+00  0.00000000E+00
  0.00000000E+00  0.00000000E+00  0.00000000E+00  0.00000000E+00  0.00000000E+00
  0.00000000E+00  0.00000000E+00  0.00000000E+00  0.00000000E+00  0.00000000E+00
  0.00000000E+00  0.00000000E+00  0.00000000E+00  0.00000000E+00  0.00000000E+00
  0.00000000E+00  0.00000000E+00  0.00000000E+00  0.00000000E+00  0.00000000E+00
IOpCl                                      I                0
IROHF                                      I                0
Alpha Orbital Energies                     R   N=         167
 -1.01533997E+02 -1.02495466E+01 -1.01928240E+01 -1.01839304E+01 -1.01836389E+01
 -9.44834564E+00 -7.21272086E+00 -7.20327787E+00 -7.20306832E+00 -8.65466588E-01
 -7.88780780E-01 -7.35880115E-01 -6.42280102E-01 -5.77873012E-01 -4.84214861E-01
 -4.74504631E-01 -4.42089558E-01 -4.08919063E-01 -4.05303100E-01 -3.79870999E-01
 -3.68015717E-01 -3.05448587E-01 -2.95882454E-01 -2.81506236E-01 -3.34025386E-02
 -7.72665184E-03  5.85129615E-03  7.02410940E-03  2.35248032E-02  2.86913147E-02
  3.88708162E-02  4.08725291E-02  6.29253752E-02  6.47590760E-02  7.22113548E-02
  8.36782030E-02  8.74955358E-02  9.79266243E-02  1.09631903E-01  1.15819513E-01
  1.18374196E-01  1.21842115E-01  1.28749514E-01  1.30453495E-01  1.35483327E-01
  1.41781724E-01  1.50170731E-01  1.57233514E-01  1.60125091E-01  1.65364302E-01
  1.71131443E-01  1.88050419E-01  1.91044512E-01  2.10367100E-01  2.15995481E-01
  2.26698939E-01  2.46141997E-01  2.60760505E-01  2.68108882E-01  2.83437964E-01
  3.38229391E-01  3.56608012E-01  3.91049732E-01  4.24310035E-01  4.33355004E-01
  4.52891021E-01  4.63197404E-01  4.80239873E-01  4.85878252E-01  4.94833860E-01
  5.24571791E-01  5.28703782E-01  5.65731526E-01  5.87218361E-01  5.96434194E-01
  6.16849383E-01  6.38232764E-01  6.41425833E-01  6.51532201E-01  6.61279492E-01
  6.95523220E-01  7.00795382E-01  7.33385223E-01  7.38505673E-01  7.83373240E-01
  8.16824450E-01  8.34009032E-01  8.63333818E-01  8.93277899E-01  9.05980599E-01
  9.46994808E-01  9.56659794E-01  1.00951941E+00  1.02810193E+00  1.06139836E+00
  1.08332352E+00  1.12913983E+00  1.17744822E+00  1.19359104E+00  1.27278361E+00
  1.39575656E+00  1.42911364E+00  1.44989698E+00  1.47164493E+00  1.50825796E+00
  1.54603468E+00  1.55842959E+00  1.57146255E+00  1.59280493E+00  1.62458507E+00
  1.66878677E+00  1.69173121E+00  1.69752386E+00  1.72204057E+00  1.76303834E+00
  1.78211351E+00  1.87506206E+00  1.89150724E+00  1.93547901E+00  1.97945032E+00
  2.01351842E+00  2.06820240E+00  2.12602554E+00  2.18066932E+00  2.18881821E+00
  2.20412673E+00  2.24848788E+00  2.28968005E+00  2.29908032E+00  2.34874457E+00
  2.36423932E+00  2.45060867E+00  2.46000513E+00  2.49447012E+00  2.51329665E+00
  2.55821640E+00  2.57465780E+00  2.57872347E+00  2.60070771E+00  2.64647886E+00
  2.72742903E+00  2.73073158E+00  2.74672846E+00  2.77169605E+00  2.84437784E+00
  2.85431013E+00  2.93400559E+00  3.05752284E+00  3.09903868E+00  3.17402439E+00
  3.38945081E+00  3.50744476E+00  3.71690247E+00  3.77073344E+00  3.77786718E+00
  3.94934585E+00  4.09638755E+00  4.27568043E+00  9.75633301E+00  2.37057694E+01
  2.37945102E+01  2.39350207E+01  2.42668339E+01  2.59289458E+01  2.59681805E+01
  2.64411101E+01  2.15745983E+02
Alpha MO coefficients                      R   N=       27889
  2.53099414E-07 -6.02700004E-07 -2.86547400E-06 -1.79161693E-06 -9.81659258E-07
  3.19702602E-06  2.03196225E-05  1.31896973E-05  7.38058438E-06 -1.48233843E-05
  3.83823813E-05  3.54119086E-05  1.20976105E-05 -1.55025699E-03 -1.55290053E-04
  4.65887254E-04  2.75310920E-05  6.77568597E-06 -5.08580358E-06 -2.23286554E-06
  1.09493391E-05  1.66504785E-06  1.59154712E-06 -3.39713606E-06  1.23446500E-05
 -1.12890634E-05  5.90710761E-06 -1.39444664E-05 -1.52528620E-05  1.64819210E-05
 -2.29750736E-05  1.74587347E-04  1.28055541E-04 -1.11912022E-04  1.10616912E-05
  3.54941634E-03 -4.96531566E-04  4.53513586E-04  8.84027276E-04  1.17279045E-05
 -1.58121893E-06  3.60717926E-06 -1.57718295E-06  7.38837160E-06 -6.49406564E-07
  1.88608726E-06  3.89098880E-06 -2.44514998E-06 -4.33366025E-06 -9.15482309E-06
 -2.32289666E-05  9.37930505E-06  2.64265016E-05  1.97355282E-05  4.93879974E-06
 -1.07040229E-05 -6.52314023E-05 -1.10820560E-03 -1.27015302E-03 -3.89665759E-04
 -1.04863381E-04  7.34344030E-06  5.71341522E-06 -5.87181380E-06  6.70138956E-07
 -4.22010373E-06  3.10808579E-07 -9.24050066E-07 -1.59670313E-06  6.48197864E-07
  5.06833968E-07  9.87591918E-06  8.47784311E-06 -2.20716042E-06  2.46600474E-06
 -6.72795455E-05 -8.17268827E-05 -2.00375736E-05  5.62412956E-05 -1.76386914E-03
 -3.47513797E-04 -1.89715554E-04 -1.51470341E-04 -5.01592206E-06 -1.34746088E-06
 -3.51196823E-06 -1.83092597E-06 -1.67870682E-06 -3.23673001E-06  3.50790164E-05
  5.40063268E-05  1.97604380E-05  7.04817264E-06  5.43632720E-09  6.58044780E-06
  1.21336354E-05 -8.09005763E-05  8.46708159E-05  2.26445426E-04  7.76950677E-06
  1.28572852E-05 -1.07236241E-05  1.84426252E-06 -1.75671057E-05 -4.52338597E-05
 -1.19250302E-04 -2.14574465E-07 -1.38310772E-08  1.12213701E-06  5.56517451E-06
 -3.54581491E-05  6.98779839E-05  1.51293551E-04 -1.04644478E-05  2.01277846E-06
  1.38929032E-05 -8.56746579E-07 -6.26883608E-05 -8.62506193E-05  1.86795281E-04
 -1.01832186E-05  4.17044513E-06 -1.82189576E-05  9.64432612E-06 -5.31220075E-05
 -9.61359337E-08  9.11795265E-05 -5.15617163E-06  1.21132422E-05  1.28354420E-05
 -7.75071731E-06  4.34701667E-05 -1.29524451E-04 -3.13422708E-04  1.73543188E-06
 -6.82527094E-06  6.78457415E-07  4.11609700E-01  6.54076211E-01  1.50037284E-02