(R)-3-chloro-1-butene tau=120                                           
SP        RB3LYP                                                      6-311++G(d,p)       
Number of atoms                            I               12
Info1-9                                    I   N=           9
          26          26           0           0           0         110
           1          18        -502
Full Title                                 C   N=           3
(R)-3-chloro-1-butene tau=120       
Route                                      C   N=           7
#P B3LYP/6-311++G** scf(conver=11) int=ultrafine polar=optro
t cphf(rdfreq,conver=11)
Charge                                     I                0
Multiplicity                               I                1
Number of electrons                        I               48
Number of alpha electrons                  I               24
Number of beta electrons                   I               24
Number of basis functions                  I              167
Number of independent functions            I              167
Number of point charges in /Mol/           I                0
Number of translation vectors              I                0
Atomic numbers                             I   N=          12
           6           6           6           6           1           1
           1           1           1           1           1          17
Nuclear charges                            R   N=          12
  6.00000000E+00  6.00000000E+00  6.00000000E+00  6.00000000E+00  1.00000000E+00
  1.00000000E+00  1.00000000E+00  1.00000000E+00  1.00000000E+00  1.00000000E+00
  1.00000000E+00  1.70000000E+01
Current cartesian coordinates              R   N=          36
  8.83956452E-01  3.31641598E+00  6.84953984E-02  1.23005699E-02  6.62894570E-01
 -6.04949535E-01 -2.27921666E+00 -1.79567251E-01  8.05797258E-01 -4.40988444E+00
 -9.35009565E-01 -2.94868777E-01 -4.59039478E+00 -1.03592053E+00 -2.33160296E+00
  2.60700920E+00  3.82083032E+00 -9.68202821E-01 -6.04447846E+00 -1.48212079E+00
  8.05590749E-01 -2.13259812E+00 -1.12089701E-01  2.86573460E+00 -3.06619983E-01
  4.79150858E-01 -2.73651590E+00  1.29376261E+00  3.46510717E+00  2.17282873E+00
 -5.53324740E-01  4.62790885E+00 -3.89549045E-01  2.61668875E+00 -1.58536874E+00
  4.32276813E-02
Number of symbols in /Mol/                 I                0
Force Field                                I                0
Atom Types                                 C   N=          12
                                                            
                                                            
                        
Int Atom Types                             I   N=          12
           0           0           0           0           0           0
           0           0           0           0           0           0
MM charges                                 R   N=          12
  0.00000000E+00  0.00000000E+00  0.00000000E+00  0.00000000E+00  0.00000000E+00
  0.00000000E+00  0.00000000E+00  0.00000000E+00  0.00000000E+00  0.00000000E+00
  0.00000000E+00  0.00000000E+00
Integer atomic weights                     I   N=          12
          12          12          12          12           1           1
           1           1           1           1           1          35
Real atomic weights                        R   N=          12
  1.20000000E+01  1.20000000E+01  1.20000000E+01  1.20000000E+01  1.00782504E+00
  1.00782504E+00  1.00782504E+00  1.00782504E+00  1.00782504E+00  1.00782504E+00
  1.00782504E+00  3.49688527E+01
Atom fragment info                         I   N=          12
           0           0           0           0           0           0
           0           0           0           0           0           0
Atom residue num                           I   N=          12
           0           0           0           0           0           0
           0           0           0           0           0           0
Nuclear spins                              I   N=          12
           0           0           0           0           1           1
           1           1           1           1           1           3
Nuclear ZEff                               R   N=          12
 -3.60000000E+00 -3.60000000E+00 -3.60000000E+00 -3.60000000E+00 -1.00000000E+00
 -1.00000000E+00 -1.00000000E+00 -1.00000000E+00 -1.00000000E+00 -1.00000000E+00
 -1.00000000E+00 -1.42400000E+01
Nuclear ZNuc                               R   N=          12
  6.00000000E+00  6.00000000E+00  6.00000000E+00  6.00000000E+00  1.00000000E+00
  1.00000000E+00  1.00000000E+00  1.00000000E+00  1.00000000E+00  1.00000000E+00
  1.00000000E+00  1.70000000E+01
Nuclear QMom                               R   N=          12
  0.00000000E+00  0.00000000E+00  0.00000000E+00  0.00000000E+00  0.00000000E+00
  0.00000000E+00  0.00000000E+00  0.00000000E+00  0.00000000E+00  0.00000000E+00
  0.00000000E+00 -8.16500000E+00
Nuclear GFac                               R   N=          12
  0.00000000E+00  0.00000000E+00  0.00000000E+00  0.00000000E+00  2.79284600E+00
  2.79284600E+00  2.79284600E+00  2.79284600E+00  2.79284600E+00  2.79284600E+00
  2.79284600E+00  8.21874000E-01
MicOpt                                     I   N=          12
          -1          -1          -1          -1          -1          -1
          -1          -1          -1          -1          -1          -1
Number of residues                         I                0
Number of secondary structures             I                0
SymInf integers                            I   N=          26
           1           1           1           1           1           0
           0           0           0           0           0           0
           0           0           0           0           0           0
           0           0           0           0           0           0
           0           0
RotTr to input orientation                 R   N=          12
  9.99999182E-01  1.27878584E-03  0.00000000E+00 -1.27878584E-03  9.99999182E-01
  0.00000000E+00  0.00000000E+00  0.00000000E+00  1.00000000E+00  5.79517983E-04
 -4.04978153E-04  2.92198903E-06
Number of contracted shells                I               72
Number of primitive shells                 I              126
Pure/Cartesian d shells                    I                0
Pure/Cartesian f shells                    I                0
Highest angular momentum                   I                2
Largest degree of contraction              I                6
Shell types                                I   N=          72
           0          -1          -1          -1          -1          -2
           0          -1          -1          -1          -1          -2
           0          -1          -1          -1          -1          -2
           0          -1          -1          -1          -1          -2
           0           0           0           0           1           0
           0           0           0           1           0           0
           0           0           1           0           0           0
           0           1           0           0           0           0
           1           0           0           0           0           1
           0           0           0           0           1           0
           0           0           0           0           0          -1
           1           1           1           1           1          -2
Number of primitives per shell             I   N=          72
           6           3           1           1           1           1
           6           3           1           1           1           1
           6           3           1           1           1           1
           6           3           1           1           1           1
           3           1           1           1           1           3
           1           1           1           1           3           1
           1           1           1           3           1           1
           1           1           3           1           1           1
           1           3           1           1           1           1
           3           1           1           1           1           6
           3           1           1           1           1           1
           5           2           1           1           1           1
Shell to atom map                          I   N=          72
           1           1           1           1           1           1
           2           2           2           2           2           2
           3           3           3           3           3           3
           4           4           4           4           4           4
           5           5           5           5           5           6
           6           6           6           6           7           7
           7           7           7           8           8           8
           8           8           9           9           9           9
           9          10          10          10          10          10
          11          11          11          11          11          12
          12          12          12          12          12          12
          12          12          12          12          12          12
Primitive exponents                        R   N=         126
  4.56324000E+03  6.82024000E+02  1.54973000E+02  4.44553000E+01  1.30290000E+01
  1.82773000E+00  2.09642000E+01  4.80331000E+00  1.45933000E+00  4.83456000E-01
  1.45585000E-01  4.38000000E-02  6.26000000E-01  4.56324000E+03  6.82024000E+02
  1.54973000E+02  4.44553000E+01  1.30290000E+01  1.82773000E+00  2.09642000E+01
  4.80331000E+00  1.45933000E+00  4.83456000E-01  1.45585000E-01  4.38000000E-02
  6.26000000E-01  4.56324000E+03  6.82024000E+02  1.54973000E+02  4.44553000E+01
  1.30290000E+01  1.82773000E+00  2.09642000E+01  4.80331000E+00  1.45933000E+00
  4.83456000E-01  1.45585000E-01  4.38000000E-02  6.26000000E-01  4.56324000E+03
  6.82024000E+02  1.54973000E+02  4.44553000E+01  1.30290000E+01  1.82773000E+00
  2.09642000E+01  4.80331000E+00  1.45933000E+00  4.83456000E-01  1.45585000E-01
  4.38000000E-02  6.26000000E-01  3.38650000E+01  5.09479000E+00  1.15879000E+00
  3.25840000E-01  1.02741000E-01  3.60000000E-02  7.50000000E-01  3.38650000E+01
  5.09479000E+00  1.15879000E+00  3.25840000E-01  1.02741000E-01  3.60000000E-02
  7.50000000E-01  3.38650000E+01  5.09479000E+00  1.15879000E+00  3.25840000E-01
  1.02741000E-01  3.60000000E-02  7.50000000E-01  3.38650000E+01  5.09479000E+00
  1.15879000E+00  3.25840000E-01  1.02741000E-01  3.60000000E-02  7.50000000E-01
  3.38650000E+01  5.09479000E+00  1.15879000E+00  3.25840000E-01  1.02741000E-01
  3.60000000E-02  7.50000000E-01  3.38650000E+01  5.09479000E+00  1.15879000E+00
  3.25840000E-01  1.02741000E-01  3.60000000E-02  7.50000000E-01  3.38650000E+01
  5.09479000E+00  1.15879000E+00  3.25840000E-01  1.02741000E-01  3.60000000E-02
  7.50000000E-01  1.05819000E+05  1.58720000E+04  3.61965000E+03  1.03080000E+03
  3.39908000E+02  1.24538000E+02  1.24538000E+02  4.95135000E+01  2.08056000E+01
  6.58346000E+00  2.56468000E+00  5.59763000E-01  1.83273000E-01  4.83000000E-02
  5.89776000E+02  1.39849000E+02  4.51413000E+01  1.68733000E+01  2.77152000E+00
  6.74110000E+00  2.77152000E+00  1.02387000E+00  3.81368000E-01  1.09437000E-01
  7.50000000E-01
Contraction coefficients                   R   N=         126
  1.96665025E-03  1.52306019E-02  7.61269097E-02  2.60801033E-01  6.16462078E-01
  2.21006028E-01  1.14660081E-01  9.19999648E-01 -3.03068213E-03  1.00000000E+00
  1.00000000E+00  1.00000000E+00  1.00000000E+00  1.96665025E-03  1.52306019E-02
  7.61269097E-02  2.60801033E-01  6.16462078E-01  2.21006028E-01  1.14660081E-01
  9.19999648E-01 -3.03068213E-03  1.00000000E+00  1.00000000E+00  1.00000000E+00
  1.00000000E+00  1.96665025E-03  1.52306019E-02  7.61269097E-02  2.60801033E-01
  6.16462078E-01  2.21006028E-01  1.14660081E-01  9.19999648E-01 -3.03068213E-03
  1.00000000E+00  1.00000000E+00  1.00000000E+00  1.00000000E+00  1.96665025E-03
  1.52306019E-02  7.61269097E-02  2.60801033E-01  6.16462078E-01  2.21006028E-01
  1.14660081E-01  9.19999648E-01 -3.03068213E-03  1.00000000E+00  1.00000000E+00
  1.00000000E+00  1.00000000E+00  2.54938145E-02  1.90373109E-01  8.52161486E-01
  1.00000000E+00  1.00000000E+00  1.00000000E+00  1.00000000E+00  2.54938145E-02
  1.90373109E-01  8.52161486E-01  1.00000000E+00  1.00000000E+00  1.00000000E+00
  1.00000000E+00  2.54938145E-02  1.90373109E-01  8.52161486E-01  1.00000000E+00
  1.00000000E+00  1.00000000E+00  1.00000000E+00  2.54938145E-02  1.90373109E-01
  8.52161486E-01  1.00000000E+00  1.00000000E+00  1.00000000E+00  1.00000000E+00
  2.54938145E-02  1.90373109E-01  8.52161486E-01  1.00000000E+00  1.00000000E+00
  1.00000000E+00  1.00000000E+00  2.54938145E-02  1.90373109E-01  8.52161486E-01
  1.00000000E+00  1.00000000E+00  1.00000000E+00  1.00000000E+00  2.54938145E-02
  1.90373109E-01  8.52161486E-01  1.00000000E+00  1.00000000E+00  1.00000000E+00
  1.00000000E+00  7.38000247E-04  5.71800191E-03  2.94950099E-02  1.17286039E-01
  3.62949121E-01  5.84149195E-01  1.34176973E-01  6.24249876E-01  2.91755942E-01
  1.00000000E+00  1.00000000E+00  1.00000000E+00  1.00000000E+00  1.00000000E+00
  3.66556935E-03  2.83679194E-02  1.24756603E-01  3.39654631E-01  7.47585963E-01
 -1.57224381E+00  9.92388882E-01  1.00000000E+00  1.00000000E+00  1.00000000E+00
  1.00000000E+00
P(S=P) Contraction coefficients            R   N=         126
  0.00000000E+00  0.00000000E+00  0.00000000E+00  0.00000000E+00  0.00000000E+00
  0.00000000E+00  4.02486927E-02  2.37593957E-01  8.15853851E-01  1.00000000E+00
  1.00000000E+00  1.00000000E+00  0.00000000E+00  0.00000000E+00  0.00000000E+00
  0.00000000E+00  0.00000000E+00  0.00000000E+00  0.00000000E+00  4.02486927E-02
  2.37593957E-01  8.15853851E-01  1.00000000E+00  1.00000000E+00  1.00000000E+00
  0.00000000E+00  0.00000000E+00  0.00000000E+00  0.00000000E+00  0.00000000E+00
  0.00000000E+00  0.00000000E+00  4.02486927E-02  2.37593957E-01  8.15853851E-01
  1.00000000E+00  1.00000000E+00  1.00000000E+00  0.00000000E+00  0.00000000E+00
  0.00000000E+00  0.00000000E+00  0.00000000E+00  0.00000000E+00  0.00000000E+00
  4.02486927E-02  2.37593957E-01  8.15853851E-01  1.00000000E+00  1.00000000E+00
  1.00000000E+00  0.00000000E+00  0.00000000E+00  0.00000000E+00  0.00000000E+00
  0.00000000E+00  0.00000000E+00  0.00000000E+00  0.00000000E+00  0.00000000E+00
  0.00000000E+00  0.00000000E+00  0.00000000E+00  0.00000000E+00  0.00000000E+00
  0.00000000E+00  0.00000000E+00  0.00000000E+00  0.00000000E+00  0.00000000E+00
  0.00000000E+00  0.00000000E+00  0.00000000E+00  0.00000000E+00  0.00000000E+00
  0.00000000E+00  0.00000000E+00  0.00000000E+00  0.00000000E+00  0.00000000E+00
  0.00000000E+00  0.00000000E+00  0.00000000E+00  0.00000000E+00  0.00000000E+00
  0.00000000E+00  0.00000000E+00  0.00000000E+00  0.00000000E+00  0.00000000E+00
  0.00000000E+00  0.00000000E+00  0.00000000E+00  0.00000000E+00  0.00000000E+00
  0.00000000E+00  0.00000000E+00  0.00000000E+00  0.00000000E+00  0.00000000E+00
  0.00000000E+00  0.00000000E+00  0.00000000E+00  0.00000000E+00  0.00000000E+00
  0.00000000E+00  0.00000000E+00  0.00000000E+00  0.00000000E+00  0.00000000E+00
  0.00000000E+00  0.00000000E+00  0.00000000E+00  0.00000000E+00  1.00000000E+00
  0.00000000E+00  0.00000000E+00  0.00000000E+00  0.00000000E+00  0.00000000E+00
  0.00000000E+00  0.00000000E+00  0.00000000E+00  0.00000000E+00  0.00000000E+00
  0.00000000E+00
Coordinates of each shell                  R   N=         216
  8.83956452E-01  3.31641598E+00  6.84953984E-02  8.83956452E-01  3.31641598E+00
  6.84953984E-02  8.83956452E-01  3.31641598E+00  6.84953984E-02  8.83956452E-01
  3.31641598E+00  6.84953984E-02  8.83956452E-01  3.31641598E+00  6.84953984E-02
  8.83956452E-01  3.31641598E+00  6.84953984E-02  1.23005699E-02  6.62894570E-01
 -6.04949535E-01  1.23005699E-02  6.62894570E-01 -6.04949535E-01  1.23005699E-02
  6.62894570E-01 -6.04949535E-01  1.23005699E-02  6.62894570E-01 -6.04949535E-01
  1.23005699E-02  6.62894570E-01 -6.04949535E-01  1.23005699E-02  6.62894570E-01
 -6.04949535E-01 -2.27921666E+00 -1.79567251E-01  8.05797258E-01 -2.27921666E+00
 -1.79567251E-01  8.05797258E-01 -2.27921666E+00 -1.79567251E-01  8.05797258E-01
 -2.27921666E+00 -1.79567251E-01  8.05797258E-01 -2.27921666E+00 -1.79567251E-01
  8.05797258E-01 -2.27921666E+00 -1.79567251E-01  8.05797258E-01 -4.40988444E+00
 -9.35009565E-01 -2.94868777E-01 -4.40988444E+00 -9.35009565E-01 -2.94868777E-01
 -4.40988444E+00 -9.35009565E-01 -2.94868777E-01 -4.40988444E+00 -9.35009565E-01
 -2.94868777E-01 -4.40988444E+00 -9.35009565E-01 -2.94868777E-01 -4.40988444E+00
 -9.35009565E-01 -2.94868777E-01 -4.59039478E+00 -1.03592053E+00 -2.33160296E+00
 -4.59039478E+00 -1.03592053E+00 -2.33160296E+00 -4.59039478E+00 -1.03592053E+00
 -2.33160296E+00 -4.59039478E+00 -1.03592053E+00 -2.33160296E+00 -4.59039478E+00
 -1.03592053E+00 -2.33160296E+00  2.60700920E+00  3.82083032E+00 -9.68202821E-01
  2.60700920E+00  3.82083032E+00 -9.68202821E-01  2.60700920E+00  3.82083032E+00
 -9.68202821E-01  2.60700920E+00  3.82083032E+00 -9.68202821E-01  2.60700920E+00
  3.82083032E+00 -9.68202821E-01 -6.04447846E+00 -1.48212079E+00  8.05590749E-01
 -6.04447846E+00 -1.48212079E+00  8.05590749E-01 -6.04447846E+00 -1.48212079E+00
  8.05590749E-01 -6.04447846E+00 -1.48212079E+00  8.05590749E-01 -6.04447846E+00
 -1.48212079E+00  8.05590749E-01 -2.13259812E+00 -1.12089701E-01  2.86573460E+00
 -2.13259812E+00 -1.12089701E-01  2.86573460E+00 -2.13259812E+00 -1.12089701E-01
  2.86573460E+00 -2.13259812E+00 -1.12089701E-01  2.86573460E+00 -2.13259812E+00
 -1.12089701E-01  2.86573460E+00 -3.06619983E-01  4.79150858E-01 -2.73651590E+00
 -3.06619983E-01  4.79150858E-01 -2.73651590E+00 -3.06619983E-01  4.79150858E-01
 -2.73651590E+00 -3.06619983E-01  4.79150858E-01 -2.73651590E+00 -3.06619983E-01
  4.79150858E-01 -2.73651590E+00  1.29376261E+00  3.46510717E+00  2.17282873E+00
  1.29376261E+00  3.46510717E+00  2.17282873E+00  1.29376261E+00  3.46510717E+00
  2.17282873E+00  1.29376261E+00  3.46510717E+00  2.17282873E+00  1.29376261E+00
  3.46510717E+00  2.17282873E+00 -5.53324740E-01  4.62790885E+00 -3.89549045E-01
 -5.53324740E-01  4.62790885E+00 -3.89549045E-01 -5.53324740E-01  4.62790885E+00
 -3.89549045E-01 -5.53324740E-01  4.62790885E+00 -3.89549045E-01 -5.53324740E-01
  4.62790885E+00 -3.89549045E-01  2.61668875E+00 -1.58536874E+00  4.32276813E-02
  2.61668875E+00 -1.58536874E+00  4.32276813E-02  2.61668875E+00 -1.58536874E+00
  4.32276813E-02  2.61668875E+00 -1.58536874E+00  4.32276813E-02  2.61668875E+00
 -1.58536874E+00  4.32276813E-02  2.61668875E+00 -1.58536874E+00  4.32276813E-02
  2.61668875E+00 -1.58536874E+00  4.32276813E-02  2.61668875E+00 -1.58536874E+00
  4.32276813E-02  2.61668875E+00 -1.58536874E+00  4.32276813E-02  2.61668875E+00
 -1.58536874E+00  4.32276813E-02  2.61668875E+00 -1.58536874E+00  4.32276813E-02
  2.61668875E+00 -1.58536874E+00  4.32276813E-02  2.61668875E+00 -1.58536874E+00
  4.32276813E-02
Constraint Structure                       R   N=          36
  8.83956452E-01  3.31641598E+00  6.84953984E-02  1.23005699E-02  6.62894570E-01
 -6.04949535E-01 -2.27921666E+00 -1.79567251E-01  8.05797258E-01 -4.40988444E+00
 -9.35009565E-01 -2.94868777E-01 -4.59039478E+00 -1.03592053E+00 -2.33160296E+00
  2.60700920E+00  3.82083032E+00 -9.68202821E-01 -6.04447846E+00 -1.48212079E+00
  8.05590749E-01 -2.13259812E+00 -1.12089701E-01  2.86573460E+00 -3.06619983E-01
  4.79150858E-01 -2.73651590E+00  1.29376261E+00  3.46510717E+00  2.17282873E+00
 -5.53324740E-01  4.62790885E+00 -3.89549045E-01  2.61668875E+00 -1.58536874E+00
  4.32276813E-02
Num ILSW                                   I              100
ILSW                                       I   N=         100
           0           0           0           0           2           0
           0           0           0           0         402          -1
           5           0           0           0           0           0
           0           0           0           0           0           0
           1           0           0           0           0           0
           0           0      100000           0          -1           0
           0           0           0           0           0           0
           0           0           0           1           0           0
           0           0           1           0           0           0
           0           0           4          41           0           0
           0           0           5           0           0           0
           0           0           0           0           0           0
           0           0           0           0           0           0
           0           0           0           0           0           0
           0           0           0           0           0           0
           0           0           0           0           0           0
           0           0           0           0
Num RLSW                                   I               41
RLSW                                       R   N=          41
  8.00000000E-01  7.20000000E-01  1.00000000E+00  8.10000000E-01  2.00000000E-01
  0.00000000E+00  0.00000000E+00  1.00000000E+00  0.00000000E+00  0.00000000E+00
  0.00000000E+00  0.00000000E+00  1.00000000E+00  0.00000000E+00  0.00000000E+00
  0.00000000E+00  0.00000000E+00  1.00000000E+00  0.00000000E+00  0.00000000E+00
  0.00000000E+00  0.00000000E+00  1.00000000E+00  0.00000000E+00  0.00000000E+00
  0.00000000E+00  0.00000000E+00  1.00000000E+00  0.00000000E+00  0.00000000E+00
  0.00000000E+00  0.00000000E+00  0.00000000E+00  0.00000000E+00  0.00000000E+00
  0.00000000E+00  0.00000000E+00  0.00000000E+00  1.00000000E+00  1.00000000E+00
  0.00000000E+00
MxBond                                     I                4
NBond                                      I   N=          12
           4           4           3           3           1           1
           1           1           1           1           1           1
IBond                                      I   N=          48
           2           6          10          11           1           3
           9          12           2           4           8           0
           3           5           7           0           4           0
           0           0           1           0           0           0
           4           0           0           0           3           0
           0           0           2           0           0           0
           1           0           0           0           1           0
           0           0           2           0           0           0
RBond                                      R   N=          48
  1.00000000E+00  1.00000000E+00  1.00000000E+00  1.00000000E+00  1.00000000E+00
  1.00000000E+00  1.00000000E+00  1.00000000E+00  1.00000000E+00  2.00000000E+00
  1.00000000E+00  0.00000000E+00  2.00000000E+00  1.00000000E+00  1.00000000E+00
  0.00000000E+00  1.00000000E+00  0.00000000E+00  0.00000000E+00  0.00000000E+00
  1.00000000E+00  0.00000000E+00  0.00000000E+00  0.00000000E+00  1.00000000E+00
  0.00000000E+00  0.00000000E+00  0.00000000E+00  1.00000000E+00  0.00000000E+00
  0.00000000E+00  0.00000000E+00  1.00000000E+00  0.00000000E+00  0.00000000E+00
  0.00000000E+00  1.00000000E+00  0.00000000E+00  0.00000000E+00  0.00000000E+00
  1.00000000E+00  0.00000000E+00  0.00000000E+00  0.00000000E+00  1.00000000E+00
  0.00000000E+00  0.00000000E+00  0.00000000E+00
Virial Ratio                               R      2.003177353626396E+00
SCF Energy                                 R     -6.168921436568843E+02
Total Energy                               R     -6.168921436568843E+02
RMS Density                                R      5.269030017384319E-12
Nuclear derivative order                   I                0
External E-field                           R   N=          35
  0.00000000E+00  0.00000000E+00  0.00000000E+00  0.00000000E+00  0.00000000E+00
  0.00000000E+00  0.00000000E+00  0.00000000E+00  0.00000000E+00  0.00000000E+00
  0.00000000E+00  0.00000000E+00  0.00000000E+00  0.00000000E+00  0.00000000E+00
  0.00000000E+00  0.00000000E+00  0.00000000E+00  0.00000000E+00  0.00000000E+00
  0.00000000E+00  0.00000000E+00  0.00000000E+00  0.00000000E+00  0.00000000E+00
  0.00000000E+00  0.00000000E+00  0.00000000E+00  0.00000000E+00  0.00000000E+00
  0.00000000E+00  0.00000000E+00  0.00000000E+00  0.00000000E+00  0.00000000E+00
IOpCl                                      I                0
IROHF                                      I                0
Alpha Orbital Energies                     R   N=         167
 -1.01534328E+02 -1.02524974E+01 -1.01948246E+01 -1.01838805E+01 -1.01828217E+01
 -9.44873323E+00 -7.21310023E+00 -7.20364411E+00 -7.20347105E+00 -8.66625812E-01
 -7.87238068E-01 -7.42467959E-01 -6.38449477E-01 -5.72666968E-01 -4.87160653E-01
 -4.73352056E-01 -4.45709720E-01 -4.17815426E-01 -4.00284961E-01 -3.71587390E-01
 -3.67331826E-01 -3.05962897E-01 -2.98131728E-01 -2.80709470E-01 -3.31257502E-02
 -7.59874201E-03  5.29354935E-03  6.52546693E-03  2.18197716E-02  2.82032714E-02
  3.86344661E-02  4.05603665E-02  6.27522961E-02  6.47221684E-02  7.26578842E-02
  8.25914690E-02  8.74282330E-02  9.91224389E-02  1.10686959E-01  1.14942881E-01
  1.16310115E-01  1.21170189E-01  1.27696569E-01  1.30939758E-01  1.35807163E-01
  1.40673427E-01  1.50181187E-01  1.56212204E-01  1.59862387E-01  1.65027351E-01
  1.70810321E-01  1.86761944E-01  1.91683802E-01  2.09524953E-01  2.20280174E-01
  2.25322165E-01  2.46642123E-01  2.61299844E-01  2.71457942E-01  2.88678958E-01
  3.36423892E-01  3.56597658E-01  3.90558716E-01  4.25401919E-01  4.31164404E-01
  4.46986661E-01  4.60298752E-01  4.78469988E-01  4.88175305E-01  4.95397631E-01
  5.23993305E-01  5.29549274E-01  5.66707030E-01  5.87606300E-01  5.98333891E-01
  6.21085173E-01  6.35690946E-01  6.45504612E-01  6.49681783E-01  6.65139230E-01
  6.87749329E-01  6.93144571E-01  7.34368475E-01  7.39213927E-01  7.84414503E-01
  8.13924540E-01  8.30646671E-01  8.61934891E-01  8.91190514E-01  9.00998644E-01
  9.43174874E-01  9.58877564E-01  1.00642547E+00  1.03132552E+00  1.06427116E+00
  1.08369064E+00  1.12600443E+00  1.17387556E+00  1.19709559E+00  1.29077632E+00
  1.39611052E+00  1.42944659E+00  1.44808674E+00  1.46633407E+00  1.50534848E+00
  1.54214554E+00  1.54721583E+00  1.58100017E+00  1.59946909E+00  1.62680800E+00
  1.66482981E+00  1.69240343E+00  1.69434466E+00  1.72023622E+00  1.76076713E+00
  1.78538313E+00  1.86040731E+00  1.88534308E+00  1.92237904E+00  1.97394627E+00
  2.00972887E+00  2.07242487E+00  2.11584774E+00  2.17366792E+00  2.18664207E+00
  2.19023689E+00  2.23880890E+00  2.29359492E+00  2.30211836E+00  2.34937033E+00
  2.36275153E+00  2.43335245E+00  2.46431584E+00  2.48117417E+00  2.51661125E+00
  2.55916655E+00  2.57847382E+00  2.58889054E+00  2.60597360E+00  2.63445188E+00
  2.72689452E+00  2.73684452E+00  2.75301567E+00  2.77424864E+00  2.85462364E+00
  2.86737710E+00  2.93051031E+00  3.07576743E+00  3.08661090E+00  3.18029289E+00
  3.39865657E+00  3.50458674E+00  3.71663337E+00  3.74808131E+00  3.82786417E+00
  3.92038954E+00  4.08306391E+00  4.27945797E+00  9.75578298E+00  2.36930094E+01
  2.37732678E+01  2.39378805E+01  2.42545131E+01  2.59295208E+01  2.59732239E+01
  2.64442527E+01  2.15745565E+02
Alpha MO coefficients                      R   N=       27889
 -1.30263674E-08  1.41308171E-07 -2.63897610E-06 -2.26012848E-06 -1.27797955E-06
 -3.27693621E-06  1.96933832E-05  1.46683403E-05  7.03776586E-06  8.86288694E-06
  3.43236267E-05  2.96080759E-05  2.04856941E-05 -1.66820142E-03 -1.51689895E-04
  5.13862414E-04  3.49068552E-05  6.95939848E-06 -3.88999545E-06 -4.32330114E-06
  1.29645549E-05  7.62482642E-07  1.35164808E-06 -2.72328527E-06  1.22379640E-05
 -1.20890522E-05  5.05550941E-06 -1.72718857E-05 -1.37916203E-05  2.02390134E-05
 -1.49487686E-05  1.58409478E-04  1.33389599E-04 -1.21154584E-04 -4.67067441E-06
  3.72327383E-03 -4.78705674E-04  4.68160381E-04  8.23013428E-04  7.84642624E-06
 -1.84927037E-06  3.06650769E-06 -2.69047357E-06  7.91872167E-06 -6.31743689E-07
  1.83773233E-06  4.17119537E-06 -2.57347881E-06 -4.21708247E-06 -9.09670533E-06
 -2.48270216E-05  9.69212348E-06  2.50413566E-05  2.91865314E-05  1.52016128E-05
 -8.88496784E-06 -6.51770304E-05 -1.05121822E-03 -1.22932842E-03 -3.90557239E-04
 -1.12989925E-04  6.46604522E-06  6.08877540E-06 -5.87936703E-06  7.76204903E-07
 -4.06242945E-06  3.22924477E-07 -9.61251093E-07 -1.72961105E-06  6.56272131E-07
  7.21729643E-07  1.00070076E-05  8.02046793E-06 -2.47790752E-06  1.50139580E-06
 -6.09266280E-05 -8.78393670E-05 -2.11642060E-05  6.31677243E-05 -1.72471548E-03
 -3.48786657E-04 -1.83076776E-04 -1.32465737E-04 -4.95330940E-06 -1.99501439E-06
 -3.64995269E-06 -1.88932491E-06 -1.76821104E-06 -3.18087804E-06  3.57888320E-05
  6.00359761E-05  4.19797416E-05  6.75543889E-06 -6.15219685E-09  6.43628005E-06
  1.22226447E-05 -8.24296261E-05  8.19740336E-05  2.25991947E-04  8.24122819E-06
  1.30967457E-05 -1.07468150E-05  2.31848978E-06 -2.17396152E-05 -5.15639024E-05
 -1.26919741E-04 -9.73375020E-07 -2.28898431E-07  1.28948023E-06  5.79956198E-06
 -3.42596773E-05  6.24718113E-05  1.43810325E-04 -1.10646187E-05  1.80449906E-06
  1.33768465E-05  1.45537387E-07 -5.47494758E-05 -1.08809088E-04  1.20785010E-04
 -6.97799178E-06  2.63741615E-06 -1.43396765E-05  1.04801646E-05 -5.82225352E-05
 -1.35899205E-05  7.86216105E-05 -4.58209767E-06  1.21343359E-05  1.36038709E-05
 -8.05995722E-06  4.20641115E-05 -1.40702830E-04 -3.26820770E-04  9.64440264E-07
 -5.93857268E-06 -5.38618818E-07  4.11609663E-01  6.54076200E-01  1.50038450E-02