(R)-3-chloro-1-butene tau=120                                           
SP        RB3LYP                                                      6-311++G(d,p)       
Number of atoms                            I               12
Info1-9                                    I   N=           9
          26          26           0           0           0         110
           1          18        -502
Full Title                                 C   N=           3
(R)-3-chloro-1-butene tau=120       
Route                                      C   N=           7
#P B3LYP/6-311++G** scf(conver=11) int=ultrafine polar=optro
t cphf(rdfreq,conver=11)
Charge                                     I                0
Multiplicity                               I                1
Number of electrons                        I               48
Number of alpha electrons                  I               24
Number of beta electrons                   I               24
Number of basis functions                  I              167
Number of independent functions            I              167
Number of point charges in /Mol/           I                0
Number of translation vectors              I                0
Atomic numbers                             I   N=          12
           6           6           6           6           1           1
           1           1           1           1           1          17
Nuclear charges                            R   N=          12
  6.00000000E+00  6.00000000E+00  6.00000000E+00  6.00000000E+00  1.00000000E+00
  1.00000000E+00  1.00000000E+00  1.00000000E+00  1.00000000E+00  1.00000000E+00
  1.00000000E+00  1.70000000E+01
Current cartesian coordinates              R   N=          36
  8.88280385E-01  3.31167594E+00  1.03052041E-01  6.31787579E-03  6.61804836E-01
 -6.02482614E-01 -2.27577198E+00 -1.82458790E-01  8.08088255E-01 -4.40887262E+00
 -9.30784887E-01 -2.93230376E-01 -4.60880701E+00 -1.02689028E+00 -2.33319680E+00
  2.55744062E+00  3.90963681E+00 -9.60441118E-01 -6.05665653E+00 -1.48814079E+00
  7.88455647E-01 -2.13347219E+00 -1.29500632E-01  2.85724443E+00 -2.78371301E-01
  5.16478125E-01 -2.63550293E+00  1.33096639E+00  3.35959094E+00  2.11770268E+00
 -5.41099514E-01  4.68679102E+00 -5.00943354E-01  2.61589868E+00 -1.58761104E+00
  3.37716236E-02
Number of symbols in /Mol/                 I                0
Force Field                                I                0
Atom Types                                 C   N=          12
                                                            
                                                            
                        
Int Atom Types                             I   N=          12
           0           0           0           0           0           0
           0           0           0           0           0           0
MM charges                                 R   N=          12
  0.00000000E+00  0.00000000E+00  0.00000000E+00  0.00000000E+00  0.00000000E+00
  0.00000000E+00  0.00000000E+00  0.00000000E+00  0.00000000E+00  0.00000000E+00
  0.00000000E+00  0.00000000E+00
Integer atomic weights                     I   N=          12
          12          12          12          12           1           1
           1           1           1           1           1          35
Real atomic weights                        R   N=          12
  1.20000000E+01  1.20000000E+01  1.20000000E+01  1.20000000E+01  1.00782504E+00
  1.00782504E+00  1.00782504E+00  1.00782504E+00  1.00782504E+00  1.00782504E+00
  1.00782504E+00  3.49688527E+01
Atom fragment info                         I   N=          12
           0           0           0           0           0           0
           0           0           0           0           0           0
Atom residue num                           I   N=          12
           0           0           0           0           0           0
           0           0           0           0           0           0
Nuclear spins                              I   N=          12
           0           0           0           0           1           1
           1           1           1           1           1           3
Nuclear ZEff                               R   N=          12
 -3.60000000E+00 -3.60000000E+00 -3.60000000E+00 -3.60000000E+00 -1.00000000E+00
 -1.00000000E+00 -1.00000000E+00 -1.00000000E+00 -1.00000000E+00 -1.00000000E+00
 -1.00000000E+00 -1.42400000E+01
Nuclear ZNuc                               R   N=          12
  6.00000000E+00  6.00000000E+00  6.00000000E+00  6.00000000E+00  1.00000000E+00
  1.00000000E+00  1.00000000E+00  1.00000000E+00  1.00000000E+00  1.00000000E+00
  1.00000000E+00  1.70000000E+01
Nuclear QMom                               R   N=          12
  0.00000000E+00  0.00000000E+00  0.00000000E+00  0.00000000E+00  0.00000000E+00
  0.00000000E+00  0.00000000E+00  0.00000000E+00  0.00000000E+00  0.00000000E+00
  0.00000000E+00 -8.16500000E+00
Nuclear GFac                               R   N=          12
  0.00000000E+00  0.00000000E+00  0.00000000E+00  0.00000000E+00  2.79284600E+00
  2.79284600E+00  2.79284600E+00  2.79284600E+00  2.79284600E+00  2.79284600E+00
  2.79284600E+00  8.21874000E-01
MicOpt                                     I   N=          12
          -1          -1          -1          -1          -1          -1
          -1          -1          -1          -1          -1          -1
Number of residues                         I                0
Number of secondary structures             I                0
SymInf integers                            I   N=          26
           1           1           1           1           1           0
           0           0           0           0           0           0
           0           0           0           0           0           0
           0           0           0           0           0           0
           0           0
RotTr to input orientation                 R   N=          12
  9.99997952E-01  1.85093193E-03  8.18123341E-04 -1.84634316E-03  9.99982758E-01
 -5.57450227E-03 -8.28427259E-04  5.57298032E-03  9.99984128E-01  4.85476943E-04
  2.14092192E-04 -1.64143462E-03
Number of contracted shells                I               72
Number of primitive shells                 I              126
Pure/Cartesian d shells                    I                0
Pure/Cartesian f shells                    I                0
Highest angular momentum                   I                2
Largest degree of contraction              I                6
Shell types                                I   N=          72
           0          -1          -1          -1          -1          -2
           0          -1          -1          -1          -1          -2
           0          -1          -1          -1          -1          -2
           0          -1          -1          -1          -1          -2
           0           0           0           0           1           0
           0           0           0           1           0           0
           0           0           1           0           0           0
           0           1           0           0           0           0
           1           0           0           0           0           1
           0           0           0           0           1           0
           0           0           0           0           0          -1
           1           1           1           1           1          -2
Number of primitives per shell             I   N=          72
           6           3           1           1           1           1
           6           3           1           1           1           1
           6           3           1           1           1           1
           6           3           1           1           1           1
           3           1           1           1           1           3
           1           1           1           1           3           1
           1           1           1           3           1           1
           1           1           3           1           1           1
           1           3           1           1           1           1
           3           1           1           1           1           6
           3           1           1           1           1           1
           5           2           1           1           1           1
Shell to atom map                          I   N=          72
           1           1           1           1           1           1
           2           2           2           2           2           2
           3           3           3           3           3           3
           4           4           4           4           4           4
           5           5           5           5           5           6
           6           6           6           6           7           7
           7           7           7           8           8           8
           8           8           9           9           9           9
           9          10          10          10          10          10
          11          11          11          11          11          12
          12          12          12          12          12          12
          12          12          12          12          12          12
Primitive exponents                        R   N=         126
  4.56324000E+03  6.82024000E+02  1.54973000E+02  4.44553000E+01  1.30290000E+01
  1.82773000E+00  2.09642000E+01  4.80331000E+00  1.45933000E+00  4.83456000E-01
  1.45585000E-01  4.38000000E-02  6.26000000E-01  4.56324000E+03  6.82024000E+02
  1.54973000E+02  4.44553000E+01  1.30290000E+01  1.82773000E+00  2.09642000E+01
  4.80331000E+00  1.45933000E+00  4.83456000E-01  1.45585000E-01  4.38000000E-02
  6.26000000E-01  4.56324000E+03  6.82024000E+02  1.54973000E+02  4.44553000E+01
  1.30290000E+01  1.82773000E+00  2.09642000E+01  4.80331000E+00  1.45933000E+00
  4.83456000E-01  1.45585000E-01  4.38000000E-02  6.26000000E-01  4.56324000E+03
  6.82024000E+02  1.54973000E+02  4.44553000E+01  1.30290000E+01  1.82773000E+00
  2.09642000E+01  4.80331000E+00  1.45933000E+00  4.83456000E-01  1.45585000E-01
  4.38000000E-02  6.26000000E-01  3.38650000E+01  5.09479000E+00  1.15879000E+00
  3.25840000E-01  1.02741000E-01  3.60000000E-02  7.50000000E-01  3.38650000E+01
  5.09479000E+00  1.15879000E+00  3.25840000E-01  1.02741000E-01  3.60000000E-02
  7.50000000E-01  3.38650000E+01  5.09479000E+00  1.15879000E+00  3.25840000E-01
  1.02741000E-01  3.60000000E-02  7.50000000E-01  3.38650000E+01  5.09479000E+00
  1.15879000E+00  3.25840000E-01  1.02741000E-01  3.60000000E-02  7.50000000E-01
  3.38650000E+01  5.09479000E+00  1.15879000E+00  3.25840000E-01  1.02741000E-01
  3.60000000E-02  7.50000000E-01  3.38650000E+01  5.09479000E+00  1.15879000E+00
  3.25840000E-01  1.02741000E-01  3.60000000E-02  7.50000000E-01  3.38650000E+01
  5.09479000E+00  1.15879000E+00  3.25840000E-01  1.02741000E-01  3.60000000E-02
  7.50000000E-01  1.05819000E+05  1.58720000E+04  3.61965000E+03  1.03080000E+03
  3.39908000E+02  1.24538000E+02  1.24538000E+02  4.95135000E+01  2.08056000E+01
  6.58346000E+00  2.56468000E+00  5.59763000E-01  1.83273000E-01  4.83000000E-02
  5.89776000E+02  1.39849000E+02  4.51413000E+01  1.68733000E+01  2.77152000E+00
  6.74110000E+00  2.77152000E+00  1.02387000E+00  3.81368000E-01  1.09437000E-01
  7.50000000E-01
Contraction coefficients                   R   N=         126
  1.96665025E-03  1.52306019E-02  7.61269097E-02  2.60801033E-01  6.16462078E-01
  2.21006028E-01  1.14660081E-01  9.19999648E-01 -3.03068213E-03  1.00000000E+00
  1.00000000E+00  1.00000000E+00  1.00000000E+00  1.96665025E-03  1.52306019E-02
  7.61269097E-02  2.60801033E-01  6.16462078E-01  2.21006028E-01  1.14660081E-01
  9.19999648E-01 -3.03068213E-03  1.00000000E+00  1.00000000E+00  1.00000000E+00
  1.00000000E+00  1.96665025E-03  1.52306019E-02  7.61269097E-02  2.60801033E-01
  6.16462078E-01  2.21006028E-01  1.14660081E-01  9.19999648E-01 -3.03068213E-03
  1.00000000E+00  1.00000000E+00  1.00000000E+00  1.00000000E+00  1.96665025E-03
  1.52306019E-02  7.61269097E-02  2.60801033E-01  6.16462078E-01  2.21006028E-01
  1.14660081E-01  9.19999648E-01 -3.03068213E-03  1.00000000E+00  1.00000000E+00
  1.00000000E+00  1.00000000E+00  2.54938145E-02  1.90373109E-01  8.52161486E-01
  1.00000000E+00  1.00000000E+00  1.00000000E+00  1.00000000E+00  2.54938145E-02
  1.90373109E-01  8.52161486E-01  1.00000000E+00  1.00000000E+00  1.00000000E+00
  1.00000000E+00  2.54938145E-02  1.90373109E-01  8.52161486E-01  1.00000000E+00
  1.00000000E+00  1.00000000E+00  1.00000000E+00  2.54938145E-02  1.90373109E-01
  8.52161486E-01  1.00000000E+00  1.00000000E+00  1.00000000E+00  1.00000000E+00
  2.54938145E-02  1.90373109E-01  8.52161486E-01  1.00000000E+00  1.00000000E+00
  1.00000000E+00  1.00000000E+00  2.54938145E-02  1.90373109E-01  8.52161486E-01
  1.00000000E+00  1.00000000E+00  1.00000000E+00  1.00000000E+00  2.54938145E-02
  1.90373109E-01  8.52161486E-01  1.00000000E+00  1.00000000E+00  1.00000000E+00
  1.00000000E+00  7.38000247E-04  5.71800191E-03  2.94950099E-02  1.17286039E-01
  3.62949121E-01  5.84149195E-01  1.34176973E-01  6.24249876E-01  2.91755942E-01
  1.00000000E+00  1.00000000E+00  1.00000000E+00  1.00000000E+00  1.00000000E+00
  3.66556935E-03  2.83679194E-02  1.24756603E-01  3.39654631E-01  7.47585963E-01
 -1.57224381E+00  9.92388882E-01  1.00000000E+00  1.00000000E+00  1.00000000E+00
  1.00000000E+00
P(S=P) Contraction coefficients            R   N=         126
  0.00000000E+00  0.00000000E+00  0.00000000E+00  0.00000000E+00  0.00000000E+00
  0.00000000E+00  4.02486927E-02  2.37593957E-01  8.15853851E-01  1.00000000E+00
  1.00000000E+00  1.00000000E+00  0.00000000E+00  0.00000000E+00  0.00000000E+00
  0.00000000E+00  0.00000000E+00  0.00000000E+00  0.00000000E+00  4.02486927E-02
  2.37593957E-01  8.15853851E-01  1.00000000E+00  1.00000000E+00  1.00000000E+00
  0.00000000E+00  0.00000000E+00  0.00000000E+00  0.00000000E+00  0.00000000E+00
  0.00000000E+00  0.00000000E+00  4.02486927E-02  2.37593957E-01  8.15853851E-01
  1.00000000E+00  1.00000000E+00  1.00000000E+00  0.00000000E+00  0.00000000E+00
  0.00000000E+00  0.00000000E+00  0.00000000E+00  0.00000000E+00  0.00000000E+00
  4.02486927E-02  2.37593957E-01  8.15853851E-01  1.00000000E+00  1.00000000E+00
  1.00000000E+00  0.00000000E+00  0.00000000E+00  0.00000000E+00  0.00000000E+00
  0.00000000E+00  0.00000000E+00  0.00000000E+00  0.00000000E+00  0.00000000E+00
  0.00000000E+00  0.00000000E+00  0.00000000E+00  0.00000000E+00  0.00000000E+00
  0.00000000E+00  0.00000000E+00  0.00000000E+00  0.00000000E+00  0.00000000E+00
  0.00000000E+00  0.00000000E+00  0.00000000E+00  0.00000000E+00  0.00000000E+00
  0.00000000E+00  0.00000000E+00  0.00000000E+00  0.00000000E+00  0.00000000E+00
  0.00000000E+00  0.00000000E+00  0.00000000E+00  0.00000000E+00  0.00000000E+00
  0.00000000E+00  0.00000000E+00  0.00000000E+00  0.00000000E+00  0.00000000E+00
  0.00000000E+00  0.00000000E+00  0.00000000E+00  0.00000000E+00  0.00000000E+00
  0.00000000E+00  0.00000000E+00  0.00000000E+00  0.00000000E+00  0.00000000E+00
  0.00000000E+00  0.00000000E+00  0.00000000E+00  0.00000000E+00  0.00000000E+00
  0.00000000E+00  0.00000000E+00  0.00000000E+00  0.00000000E+00  0.00000000E+00
  0.00000000E+00  0.00000000E+00  0.00000000E+00  0.00000000E+00  1.00000000E+00
  0.00000000E+00  0.00000000E+00  0.00000000E+00  0.00000000E+00  0.00000000E+00
  0.00000000E+00  0.00000000E+00  0.00000000E+00  0.00000000E+00  0.00000000E+00
  0.00000000E+00
Coordinates of each shell                  R   N=         216
  8.88280385E-01  3.31167594E+00  1.03052041E-01  8.88280385E-01  3.31167594E+00
  1.03052041E-01  8.88280385E-01  3.31167594E+00  1.03052041E-01  8.88280385E-01
  3.31167594E+00  1.03052041E-01  8.88280385E-01  3.31167594E+00  1.03052041E-01
  8.88280385E-01  3.31167594E+00  1.03052041E-01  6.31787579E-03  6.61804836E-01
 -6.02482614E-01  6.31787579E-03  6.61804836E-01 -6.02482614E-01  6.31787579E-03
  6.61804836E-01 -6.02482614E-01  6.31787579E-03  6.61804836E-01 -6.02482614E-01
  6.31787579E-03  6.61804836E-01 -6.02482614E-01  6.31787579E-03  6.61804836E-01
 -6.02482614E-01 -2.27577198E+00 -1.82458790E-01  8.08088255E-01 -2.27577198E+00
 -1.82458790E-01  8.08088255E-01 -2.27577198E+00 -1.82458790E-01  8.08088255E-01
 -2.27577198E+00 -1.82458790E-01  8.08088255E-01 -2.27577198E+00 -1.82458790E-01
  8.08088255E-01 -2.27577198E+00 -1.82458790E-01  8.08088255E-01 -4.40887262E+00
 -9.30784887E-01 -2.93230376E-01 -4.40887262E+00 -9.30784887E-01 -2.93230376E-01
 -4.40887262E+00 -9.30784887E-01 -2.93230376E-01 -4.40887262E+00 -9.30784887E-01
 -2.93230376E-01 -4.40887262E+00 -9.30784887E-01 -2.93230376E-01 -4.40887262E+00
 -9.30784887E-01 -2.93230376E-01 -4.60880701E+00 -1.02689028E+00 -2.33319680E+00
 -4.60880701E+00 -1.02689028E+00 -2.33319680E+00 -4.60880701E+00 -1.02689028E+00
 -2.33319680E+00 -4.60880701E+00 -1.02689028E+00 -2.33319680E+00 -4.60880701E+00
 -1.02689028E+00 -2.33319680E+00  2.55744062E+00  3.90963681E+00 -9.60441118E-01
  2.55744062E+00  3.90963681E+00 -9.60441118E-01  2.55744062E+00  3.90963681E+00
 -9.60441118E-01  2.55744062E+00  3.90963681E+00 -9.60441118E-01  2.55744062E+00
  3.90963681E+00 -9.60441118E-01 -6.05665653E+00 -1.48814079E+00  7.88455647E-01
 -6.05665653E+00 -1.48814079E+00  7.88455647E-01 -6.05665653E+00 -1.48814079E+00
  7.88455647E-01 -6.05665653E+00 -1.48814079E+00  7.88455647E-01 -6.05665653E+00
 -1.48814079E+00  7.88455647E-01 -2.13347219E+00 -1.29500632E-01  2.85724443E+00
 -2.13347219E+00 -1.29500632E-01  2.85724443E+00 -2.13347219E+00 -1.29500632E-01
  2.85724443E+00 -2.13347219E+00 -1.29500632E-01  2.85724443E+00 -2.13347219E+00
 -1.29500632E-01  2.85724443E+00 -2.78371301E-01  5.16478125E-01 -2.63550293E+00
 -2.78371301E-01  5.16478125E-01 -2.63550293E+00 -2.78371301E-01  5.16478125E-01
 -2.63550293E+00 -2.78371301E-01  5.16478125E-01 -2.63550293E+00 -2.78371301E-01
  5.16478125E-01 -2.63550293E+00  1.33096639E+00  3.35959094E+00  2.11770268E+00
  1.33096639E+00  3.35959094E+00  2.11770268E+00  1.33096639E+00  3.35959094E+00
  2.11770268E+00  1.33096639E+00  3.35959094E+00  2.11770268E+00  1.33096639E+00
  3.35959094E+00  2.11770268E+00 -5.41099514E-01  4.68679102E+00 -5.00943354E-01
 -5.41099514E-01  4.68679102E+00 -5.00943354E-01 -5.41099514E-01  4.68679102E+00
 -5.00943354E-01 -5.41099514E-01  4.68679102E+00 -5.00943354E-01 -5.41099514E-01
  4.68679102E+00 -5.00943354E-01  2.61589868E+00 -1.58761104E+00  3.37716236E-02
  2.61589868E+00 -1.58761104E+00  3.37716236E-02  2.61589868E+00 -1.58761104E+00
  3.37716236E-02  2.61589868E+00 -1.58761104E+00  3.37716236E-02  2.61589868E+00
 -1.58761104E+00  3.37716236E-02  2.61589868E+00 -1.58761104E+00  3.37716236E-02
  2.61589868E+00 -1.58761104E+00  3.37716236E-02  2.61589868E+00 -1.58761104E+00
  3.37716236E-02  2.61589868E+00 -1.58761104E+00  3.37716236E-02  2.61589868E+00
 -1.58761104E+00  3.37716236E-02  2.61589868E+00 -1.58761104E+00  3.37716236E-02
  2.61589868E+00 -1.58761104E+00  3.37716236E-02  2.61589868E+00 -1.58761104E+00
  3.37716236E-02
Constraint Structure                       R   N=          36
  8.88280385E-01  3.31167594E+00  1.03052041E-01  6.31787579E-03  6.61804836E-01
 -6.02482614E-01 -2.27577198E+00 -1.82458790E-01  8.08088255E-01 -4.40887262E+00
 -9.30784887E-01 -2.93230376E-01 -4.60880701E+00 -1.02689028E+00 -2.33319680E+00
  2.55744062E+00  3.90963681E+00 -9.60441118E-01 -6.05665653E+00 -1.48814079E+00
  7.88455647E-01 -2.13347219E+00 -1.29500632E-01  2.85724443E+00 -2.78371301E-01
  5.16478125E-01 -2.63550293E+00  1.33096639E+00  3.35959094E+00  2.11770268E+00
 -5.41099514E-01  4.68679102E+00 -5.00943354E-01  2.61589868E+00 -1.58761104E+00
  3.37716236E-02
Num ILSW                                   I              100
ILSW                                       I   N=         100
           0           0           0           0           2           0
           0           0           0           0         402          -1
           5           0           0           0           0           0
           0           0           0           0           0           0
           1           0           0           0           0           0
           0           0      100000           0          -1           0
           0           0           0           0           0           0
           0           0           0           1           0           0
           0           0           1           0           0           0
           0           0           4          41           0           0
           0           0           5           0           0           0
           0           0           0           0           0           0
           0           0           0           0           0           0
           0           0           0           0           0           0
           0           0           0           0           0           0
           0           0           0           0           0           0
           0           0           0           0
Num RLSW                                   I               41
RLSW                                       R   N=          41
  8.00000000E-01  7.20000000E-01  1.00000000E+00  8.10000000E-01  2.00000000E-01
  0.00000000E+00  0.00000000E+00  1.00000000E+00  0.00000000E+00  0.00000000E+00
  0.00000000E+00  0.00000000E+00  1.00000000E+00  0.00000000E+00  0.00000000E+00
  0.00000000E+00  0.00000000E+00  1.00000000E+00  0.00000000E+00  0.00000000E+00
  0.00000000E+00  0.00000000E+00  1.00000000E+00  0.00000000E+00  0.00000000E+00
  0.00000000E+00  0.00000000E+00  1.00000000E+00  0.00000000E+00  0.00000000E+00
  0.00000000E+00  0.00000000E+00  0.00000000E+00  0.00000000E+00  0.00000000E+00
  0.00000000E+00  0.00000000E+00  0.00000000E+00  1.00000000E+00  1.00000000E+00
  0.00000000E+00
MxBond                                     I                4
NBond                                      I   N=          12
           4           4           3           3           1           1
           1           1           1           1           1           1
IBond                                      I   N=          48
           2           6          10          11           1           3
           9          12           2           4           8           0
           3           5           7           0           4           0
           0           0           1           0           0           0
           4           0           0           0           3           0
           0           0           2           0           0           0
           1           0           0           0           1           0
           0           0           2           0           0           0
RBond                                      R   N=          48
  1.00000000E+00  1.00000000E+00  1.00000000E+00  1.00000000E+00  1.00000000E+00
  1.00000000E+00  1.00000000E+00  1.00000000E+00  1.00000000E+00  2.00000000E+00
  1.00000000E+00  0.00000000E+00  2.00000000E+00  1.00000000E+00  1.00000000E+00
  0.00000000E+00  1.00000000E+00  0.00000000E+00  0.00000000E+00  0.00000000E+00
  1.00000000E+00  0.00000000E+00  0.00000000E+00  0.00000000E+00  1.00000000E+00
  0.00000000E+00  0.00000000E+00  0.00000000E+00  1.00000000E+00  0.00000000E+00
  0.00000000E+00  0.00000000E+00  1.00000000E+00  0.00000000E+00  0.00000000E+00
  0.00000000E+00  1.00000000E+00  0.00000000E+00  0.00000000E+00  0.00000000E+00
  1.00000000E+00  0.00000000E+00  0.00000000E+00  0.00000000E+00  1.00000000E+00
  0.00000000E+00  0.00000000E+00  0.00000000E+00
Virial Ratio                               R      2.003055114423905E+00
SCF Energy                                 R     -6.168939841280716E+02
Total Energy                               R     -6.168939841280716E+02
RMS Density                                R      7.961872834284211E-12
Nuclear derivative order                   I                0
External E-field                           R   N=          35
  0.00000000E+00  0.00000000E+00  0.00000000E+00  0.00000000E+00  0.00000000E+00
  0.00000000E+00  0.00000000E+00  0.00000000E+00  0.00000000E+00  0.00000000E+00
  0.00000000E+00  0.00000000E+00  0.00000000E+00  0.00000000E+00  0.00000000E+00
  0.00000000E+00  0.00000000E+00  0.00000000E+00  0.00000000E+00  0.00000000E+00
  0.00000000E+00  0.00000000E+00  0.00000000E+00  0.00000000E+00  0.00000000E+00
  0.00000000E+00  0.00000000E+00  0.00000000E+00  0.00000000E+00  0.00000000E+00
  0.00000000E+00  0.00000000E+00  0.00000000E+00  0.00000000E+00  0.00000000E+00
IOpCl                                      I                0
IROHF                                      I                0
Alpha Orbital Energies                     R   N=         167
 -1.01533871E+02 -1.02472061E+01 -1.01941868E+01 -1.01842301E+01 -1.01819002E+01
 -9.44830525E+00 -7.21263756E+00 -7.20322602E+00 -7.20306249E+00 -8.67776866E-01
 -7.87137911E-01 -7.42128027E-01 -6.40601105E-01 -5.77939599E-01 -4.88554939E-01
 -4.75438479E-01 -4.44432887E-01 -4.19996647E-01 -3.98236454E-01 -3.77873619E-01
 -3.63873780E-01 -3.06244964E-01 -2.98105698E-01 -2.80508221E-01 -3.32523956E-02
 -7.90027703E-03  6.15184334E-03  7.33788561E-03  2.20257366E-02  2.85490860E-02
  3.87854738E-02  4.08275695E-02  6.38049945E-02  6.50988274E-02  7.32959436E-02
  8.27878716E-02  8.78365210E-02  9.85773671E-02  1.10397150E-01  1.15380326E-01
  1.18639100E-01  1.22145201E-01  1.28995035E-01  1.30525842E-01  1.35654190E-01
  1.40852257E-01  1.51312896E-01  1.56943392E-01  1.60569365E-01  1.63713365E-01
  1.72467209E-01  1.85483943E-01  1.93855356E-01  2.14455101E-01  2.21642153E-01
  2.27125656E-01  2.45574438E-01  2.61670015E-01  2.71167951E-01  2.91813115E-01
  3.37904410E-01  3.57973488E-01  3.90281775E-01  4.22894765E-01  4.33180773E-01
  4.46501315E-01  4.58036037E-01  4.80346962E-01  4.90103066E-01  4.95891958E-01
  5.24756431E-01  5.28743521E-01  5.68022390E-01  5.87413863E-01  5.97071283E-01
  6.21780126E-01  6.40046809E-01  6.49384334E-01  6.56412716E-01  6.59076084E-01
  6.89608565E-01  7.07182375E-01  7.32090758E-01  7.37449630E-01  7.84205655E-01
  8.12375118E-01  8.29983035E-01  8.71687899E-01  8.90810799E-01  9.00370164E-01
  9.45998134E-01  9.57904678E-01  1.00444528E+00  1.03175335E+00  1.06371301E+00
  1.08434060E+00  1.12507440E+00  1.17361245E+00  1.19788204E+00  1.29127143E+00
  1.39385882E+00  1.42991082E+00  1.44944405E+00  1.46839992E+00  1.50832840E+00
  1.54372898E+00  1.54857374E+00  1.59241174E+00  1.61296800E+00  1.62898082E+00
  1.66371328E+00  1.69857553E+00  1.69968075E+00  1.72681583E+00  1.77294804E+00
  1.78623242E+00  1.86781111E+00  1.89442146E+00  1.93729159E+00  1.97144926E+00
  2.01813679E+00  2.06919291E+00  2.12691384E+00  2.18406603E+00  2.19424286E+00
  2.19898454E+00  2.25823529E+00  2.28793969E+00  2.31084757E+00  2.35405527E+00
  2.36955760E+00  2.44392969E+00  2.46526848E+00  2.48835411E+00  2.51990161E+00
  2.56466336E+00  2.57116485E+00  2.59040649E+00  2.61221276E+00  2.65204518E+00
  2.73072921E+00  2.74294706E+00  2.75428114E+00  2.77906002E+00  2.85007637E+00
  2.85556493E+00  2.93033059E+00  3.07065825E+00  3.09503319E+00  3.18391762E+00
  3.40435822E+00  3.51042357E+00  3.70130579E+00  3.72312212E+00  3.86282430E+00
  3.94990754E+00  4.11900323E+00  4.29691697E+00  9.75661278E+00  2.37209727E+01
  2.37980698E+01  2.39409844E+01  2.42556825E+01  2.59309064E+01  2.59738858E+01
  2.64475953E+01  2.15746570E+02
Alpha MO coefficients                      R   N=       27889
  1.44717415E-07 -2.78534099E-07 -2.28852243E-06 -2.05224712E-06 -1.63300094E-06
 -3.50061219E-07  1.80962636E-05  1.49339995E-05  1.05760853E-05  1.51105289E-05
  4.00984221E-05  3.20227905E-05  2.29693559E-05 -1.60385072E-03 -1.36388085E-04
  4.93369501E-04  1.73679751E-05  7.59872439E-06 -2.67758184E-06 -6.05579727E-06
  1.23730491E-05  6.73425759E-07  1.42925188E-06 -2.92953952E-06  1.21395148E-05
 -1.19584009E-05  5.24917412E-06 -1.66252245E-05 -1.39906933E-05  1.93421014E-05
 -1.91305792E-05  1.79968216E-04  1.26314057E-04 -1.21158032E-04 -3.86826033E-06
  3.87428373E-03 -5.04734314E-04  4.30924660E-04  8.70244947E-04  9.35192454E-06
 -2.05707510E-06  2.49574128E-06 -2.44752711E-06  7.87315025E-06 -5.99100993E-07
  1.74751565E-06  4.02969201E-06 -2.52878811E-06 -4.19848980E-06 -7.76875482E-06
 -2.39343037E-05  9.71527385E-06  2.55128764E-05  1.64397344E-05  6.04346216E-06
 -1.28620094E-05 -5.83328643E-05 -1.26778592E-03 -1.24064694E-03 -3.97763251E-04
 -7.70615698E-05  6.57680736E-06  5.92462120E-06 -5.95263950E-06  4.49906868E-07
 -4.53987766E-06  3.41666269E-07 -1.00720701E-06 -1.82360651E-06  6.37589609E-07
  6.89402195E-07  9.90894661E-06  8.72087237E-06 -2.32777589E-06  1.65925293E-06
 -5.78363900E-05 -8.63336168E-05 -2.02269815E-05  5.83057464E-05 -1.65175615E-03
 -3.37405061E-04 -1.76140200E-04 -1.30485130E-04 -5.08871105E-06 -1.93676577E-06
 -3.47556161E-06 -1.69215363E-06 -1.56092798E-06 -3.09099424E-06  3.44262840E-05
  5.56384762E-05  4.19216054E-05  6.91852291E-06 -4.85131248E-08  6.20365271E-06
  1.23705861E-05 -7.90568672E-05  5.93647402E-05  2.06928906E-04  7.11286284E-06
  1.41298239E-05 -1.13222020E-05  2.28106140E-06 -2.09322524E-05 -5.14112014E-05
 -1.30007307E-04 -1.08062680E-06 -3.21171620E-07  1.24573133E-06  5.75958884E-06
 -3.47959176E-05  5.82775333E-05  1.38052609E-04 -1.08609677E-05  2.01146338E-06
  1.36552942E-05 -1.46647483E-06 -5.98881273E-05 -1.22574704E-04  1.30449814E-04
 -6.18985882E-06  1.91404096E-06 -1.55431846E-05  9.62433762E-06 -6.48726571E-05
 -2.95141337E-05  7.97538389E-05 -3.67911781E-06  1.17305478E-05  1.57913979E-05
 -8.19208130E-06  4.00232308E-05 -1.44777133E-04 -3.07065677E-04  2.82220829E-07
 -4.89936267E-06 -8.00883352E-07  4.11609651E-01  6.54076170E-01  1.50040107E-02