 Entering Gaussian System, Link 0=g09
 Input=input.dat
 Output=output.dat
 Initial command:
 /cerebro/home/software/apps/g09/l1.exe /scratch/crawdad/Gau-7602.inp -scrdir=/scratch/crawdad/
 Entering Link 1 = /cerebro/home/software/apps/g09/l1.exe PID=      7603.
  
 Copyright (c) 1988,1990,1992,1993,1995,1998,2003,2009, Gaussian, Inc.
                  All Rights Reserved.
  
 This is part of the Gaussian(R) 09 program.  It is based on
 the Gaussian(R) 03 system (copyright 2003, Gaussian, Inc.),
 the Gaussian(R) 98 system (copyright 1998, Gaussian, Inc.),
 the Gaussian(R) 94 system (copyright 1995, Gaussian, Inc.),
 the Gaussian 92(TM) system (copyright 1992, Gaussian, Inc.),
 the Gaussian 90(TM) system (copyright 1990, Gaussian, Inc.),
 the Gaussian 88(TM) system (copyright 1988, Gaussian, Inc.),
 the Gaussian 86(TM) system (copyright 1986, Carnegie Mellon
 University), and the Gaussian 82(TM) system (copyright 1983,
 Carnegie Mellon University). Gaussian is a federally registered
 trademark of Gaussian, Inc.
  
 This software contains proprietary and confidential information,
 including trade secrets, belonging to Gaussian, Inc.
  
 This software is provided under written license and may be
 used, copied, transmitted, or stored only in accord with that
 written license.
  
 The following legend is applicable only to US Government
 contracts under FAR:
  
                    RESTRICTED RIGHTS LEGEND
  
 Use, reproduction and disclosure by the US Government is
 subject to restrictions as set forth in subparagraphs (a)
 and (c) of the Commercial Computer Software - Restricted
 Rights clause in FAR 52.227-19.
  
 Gaussian, Inc.
 340 Quinnipiac St., Bldg. 40, Wallingford CT 06492
  
  
 ---------------------------------------------------------------
 Warning -- This program may not be used in any manner that
 competes with the business of Gaussian, Inc. or will provide
 assistance to any competitor of Gaussian, Inc.  The licensee
 of this program is prohibited from giving any competitor of
 Gaussian, Inc. access to this program.  By using this program,
 the user acknowledges that Gaussian, Inc. is engaged in the
 business of creating and licensing software in the field of
 computational chemistry and represents and warrants to the
 licensee that it is not a competitor of Gaussian, Inc. and that
 it will not use this program in any manner prohibited above.
 ---------------------------------------------------------------
  

 Cite this work as:
 Gaussian 09, Revision A.02,
 M. J. Frisch, G. W. Trucks, H. B. Schlegel, G. E. Scuseria, 
 M. A. Robb, J. R. Cheeseman, G. Scalmani, V. Barone, B. Mennucci, 
 G. A. Petersson, H. Nakatsuji, M. Caricato, X. Li, H. P. Hratchian, 
 A. F. Izmaylov, J. Bloino, G. Zheng, J. L. Sonnenberg, M. Hada, 
 M. Ehara, K. Toyota, R. Fukuda, J. Hasegawa, M. Ishida, T. Nakajima, 
 Y. Honda, O. Kitao, H. Nakai, T. Vreven, J. A. Montgomery, Jr., 
 J. E. Peralta, F. Ogliaro, M. Bearpark, J. J. Heyd, E. Brothers, 
 K. N. Kudin, V. N. Staroverov, R. Kobayashi, J. Normand, 
 K. Raghavachari, A. Rendell, J. C. Burant, S. S. Iyengar, J. Tomasi, 
 M. Cossi, N. Rega, J. M. Millam, M. Klene, J. E. Knox, J. B. Cross, 
 V. Bakken, C. Adamo, J. Jaramillo, R. Gomperts, R. E. Stratmann, 
 O. Yazyev, A. J. Austin, R. Cammi, C. Pomelli, J. W. Ochterski, 
 R. L. Martin, K. Morokuma, V. G. Zakrzewski, G. A. Voth, 
 P. Salvador, J. J. Dannenberg, S. Dapprich, A. D. Daniels, 
 O. Farkas, J. B. Foresman, J. V. Ortiz, J. Cioslowski, 
 and D. J. Fox, Gaussian, Inc., Wallingford CT, 2009.
 
 ******************************************
 Gaussian 09:  EM64L-G09RevA.02 11-Jun-2009
                10-Jul-2013 
 ******************************************
 %chk=vibave
 %mem=1000mb
 %nproc=1
 Will use up to    1 processors via shared memory.
 ----------------------------------------------------------------------
 #P B3LYP/6-311++G** scf(conver=11) int=ultrafine polar=optrot cphf(rdf
 req,conver=11)
 ----------------------------------------------------------------------
 1/38=1,83=21/1;
 2/12=2,17=6,18=5,40=1/2;
 3/5=4,6=6,7=1111,11=2,16=1,25=1,30=1,36=2,74=-5,75=-5/1,2,3;
 4//1;
 5/5=2,6=11,38=5,96=-2,98=1/2;
 8/6=4,10=90,11=11/1;
 10/6=1,7=11,13=10,46=8,60=-2,72=3/2;
 6/7=2,8=2,9=2,10=2,28=1/1;
 99/5=1,9=1/99;
 Leave Link    1 at Wed Jul 10 16:50:08 2013, MaxMem=  131072000 cpu:       0.1
 (Enter /cerebro/home/software/apps/g09/l101.exe)
 -----------------------------
 (R)-3-chloro-1-butene tau=120
 -----------------------------
 Symbolic Z-matrix:
 Charge =  0 Multiplicity = 1
 C                     0.45498   1.74331   0.02373 
 C                     0.02283   0.3747   -0.31113 
 C                    -1.20544  -0.0997    0.42692 
 C                    -2.33851  -0.49948  -0.15231 
 H                    -2.41335  -0.55454  -1.23465 
 H                     1.38436   1.98935  -0.49335 
 H                    -3.21915  -0.78716   0.41102 
 H                    -1.13469  -0.06613   1.51244 
 H                    -0.10213   0.25396  -1.38634 
 H                     0.66736   1.75097   1.09803 
 H                    -0.3075    2.49949  -0.18863 
 Cl                    1.38531  -0.83793   0.02187 
 
 NAtoms=     12 NQM=     12 NQMF=      0 NMic=      0 NMicF=      0 NTot=     12.
                    Isotopes and Nuclear Properties:
 (Nuclear quadrupole moments (NQMom) in fm**2, nuclear magnetic moments (NMagM)
  in nuclear magnetons)

  Atom         1           2           3           4           5           6           7           8           9          10
 IAtWgt=          12          12          12          12           1           1           1           1           1           1
 AtmWgt=  12.0000000  12.0000000  12.0000000  12.0000000   1.0078250   1.0078250   1.0078250   1.0078250   1.0078250   1.0078250
 NucSpn=           0           0           0           0           1           1           1           1           1           1
 AtZEff=   0.0000000   0.0000000   0.0000000   0.0000000   0.0000000   0.0000000   0.0000000   0.0000000   0.0000000   0.0000000
 NQMom=    0.0000000   0.0000000   0.0000000   0.0000000   0.0000000   0.0000000   0.0000000   0.0000000   0.0000000   0.0000000
 NMagM=    0.0000000   0.0000000   0.0000000   0.0000000   2.7928460   2.7928460   2.7928460   2.7928460   2.7928460   2.7928460

  Atom        11          12
 IAtWgt=           1          35
 AtmWgt=   1.0078250  34.9688527
 NucSpn=           1           3
 AtZEff=   0.0000000   0.0000000
 NQMom=    0.0000000  -8.1650000
 NMagM=    2.7928460   0.8218740
 Using perturbation frequencies:    0.071980    0.077357    0.104503    0.128347
 Leave Link  101 at Wed Jul 10 16:50:09 2013, MaxMem=  131072000 cpu:       0.2
 (Enter /cerebro/home/software/apps/g09/l202.exe)
                          Input orientation:                          
 ---------------------------------------------------------------------
 Center     Atomic      Atomic             Coordinates (Angstroms)
 Number     Number       Type             X           Y           Z
 ---------------------------------------------------------------------
      1          6           0        0.454980    1.743314    0.023731
      2          6           0        0.022832    0.374696   -0.311132
      3          6           0       -1.205443   -0.099701    0.426924
      4          6           0       -2.338513   -0.499478   -0.152314
      5          1           0       -2.413347   -0.554540   -1.234645
      6          1           0        1.384361    1.989355   -0.493349
      7          1           0       -3.219152   -0.787160    0.411020
      8          1           0       -1.134693   -0.066128    1.512435
      9          1           0       -0.102134    0.253956   -1.386343
     10          1           0        0.667358    1.750967    1.098033
     11          1           0       -0.307496    2.499492   -0.188632
     12         17           0        1.385306   -0.837929    0.021874
 ---------------------------------------------------------------------
                    Distance matrix (angstroms):
                    1          2          3          4          5
     1  C    0.000000
     2  C    1.473771   0.000000
     3  C    2.513219   1.509449   0.000000
     4  C    3.586741   2.522965   1.333862   0.000000
     5  H    3.884707   2.766103   2.103978   1.086311   0.000000
     6  H    1.091630   2.119927   3.452266   4.491146   4.630714
     7  H    4.478006   3.518788   2.127881   1.084264   1.847064
     8  H    2.831498   2.204447   1.088333   2.099611   3.069194
     9  H    2.125294   1.089161   2.151813   2.663059   2.453240
    10  H    1.095120   2.072507   2.717120   3.957668   4.499722
    11  H    1.094656   2.153806   2.817981   3.622178   3.854331
    12  Cl   2.743780   1.854100   2.724156   3.743223   4.011099
                    6          7          8          9         10
     6  H    0.000000
     7  H    5.451536   0.000000
     8  H    3.820185   2.465354   0.000000
     9  H    2.453307   3.745695   3.093792   0.000000
    10  H    1.761652   4.692444   2.592480   3.000881   0.000000
    11  H    1.793173   4.431636   3.187521   2.553256   1.779364
    12  Cl   2.873846   4.621151   3.027845   2.321156   2.894124
                   11         12
    11  H    0.000000
    12  Cl   3.748102   0.000000
 Stoichiometry    C4H7Cl
 Framework group  C1[X(C4H7Cl)]
 Deg. of freedom    30
 Full point group                 C1      NOp   1
 Largest Abelian subgroup         C1      NOp   1
 Largest concise Abelian subgroup C1      NOp   1
                         Standard orientation:                         
 ---------------------------------------------------------------------
 Center     Atomic      Atomic             Coordinates (Angstroms)
 Number     Number       Type             X           Y           Z
 ---------------------------------------------------------------------
      1          6           0        0.450088    1.745228    0.033128
      2          6           0        0.022137    0.377219   -0.309523
      3          6           0       -1.206889   -0.103741    0.423013
      4          6           0       -2.337480   -0.503427   -0.161113
      5          1           0       -2.409375   -0.553388   -1.243891
      6          1           0        1.380206    1.996035   -0.480325
      7          1           0       -3.218872   -0.795982    0.398518
      8          1           0       -1.139034   -0.075294    1.508856
      9          1           0       -0.099748    0.261424   -1.385631
     10          1           0        0.659663    1.748153    1.108004
     11          1           0       -0.313670    2.500587   -0.177532
     12         17           0        1.386687   -0.833718    0.021116
 ---------------------------------------------------------------------
 Rotational constants (GHZ):      5.6016847      2.7458203      2.0046293
 Leave Link  202 at Wed Jul 10 16:50:09 2013, MaxMem=  131072000 cpu:       0.0
 (Enter /cerebro/home/software/apps/g09/l301.exe)
 Standard basis: 6-311++G(d,p) (5D, 7F)
 Ernie: Thresh=  0.10000D-02 Tol=  0.10000D-05 Strict=F.
 There are   167 symmetry adapted basis functions of A   symmetry.
 Integral buffers will be    131072 words long.
 Raffenetti 2 integral format.
 Two-electron integral symmetry is turned on.
   167 basis functions,   260 primitive gaussians,   172 cartesian basis functions
    24 alpha electrons       24 beta electrons
       nuclear repulsion energy       212.1745995698 Hartrees.
 IExCor=  402 DFT=T Ex+Corr=B3LYP ExCW=0 ScaHFX=  0.200000
 ScaDFX=  0.800000  0.720000  1.000000  0.810000 ScalE2=  1.000000  1.000000
 IRadAn=      5 IRanWt=     -1 IRanGd=            0 ICorTp=0
 NAtoms=   12 NActive=   12 NUniq=   12 SFac= 7.50D-01 NAtFMM=   80 NAOKFM=F Big=F
 Leave Link  301 at Wed Jul 10 16:50:09 2013, MaxMem=  131072000 cpu:       0.1
 (Enter /cerebro/home/software/apps/g09/l302.exe)
 NPDir=0 NMtPBC=     1 NCelOv=     1 NCel=       1 NClECP=     1 NCelD=      1
         NCelK=      1 NCelE2=     1 NClLst=     1 CellRange=     0.0.
 One-electron integrals computed using PRISM.
 NBasis=   167 RedAO= T  NBF=   167
 NBsUse=   167 1.00D-06 NBFU=   167
 Precomputing XC quadrature grid using
 IXCGrd= 2 IRadAn=           5 IRanWt=          -1 IRanGd=           0 AccXCQ= 1.00D-10.
 NRdTot=    1019 NPtTot=      274288 NUsed=      281590 NTot=      281622
 NSgBfM=   172   172   172   172   172 NAtAll=    12    12.
 Leave Link  302 at Wed Jul 10 16:50:10 2013, MaxMem=  131072000 cpu:       0.7
 (Enter /cerebro/home/software/apps/g09/l303.exe)
 DipDrv:  MaxL=2.
 Leave Link  303 at Wed Jul 10 16:50:10 2013, MaxMem=  131072000 cpu:       0.1
 (Enter /cerebro/home/software/apps/g09/l401.exe)
 Harris functional with IExCor=  402 diagonalized for initial guess.
 ExpMin= 3.60D-02 ExpMax= 1.06D+05 ExpMxC= 3.62D+03 IAcc=3 IRadAn=         5 AccDes= 0.00D+00
 HarFok:  IExCor=  402 AccDes= 0.00D+00 IRadAn=         5 IDoV= 1
 ScaDFX=  1.000000  1.000000  1.000000  1.000000
 FoFCou: FMM=F IPFlag=           0 FMFlag=      100000 FMFlg1=           0
         NFxFlg=           0 DoJE=T BraDBF=F KetDBF=T FulRan=T
         Omega=  0.000000  0.000000  1.000000  0.000000  0.000000 ICntrl=     500 IOpCl=  0
         NMat0=    1 NMatS0=    1 NMatT0=    0 NMatD0=    1 NMtDS0=    0 NMtDT0=    0
         I1Cent=           4 NGrid=           0.
 Petite list used in FoFCou.
 Harris En= -616.912697366490    
 Initial guess orbital symmetries:
       Occupied  (A) (A) (A) (A) (A) (A) (A) (A) (A) (A) (A) (A)
                 (A) (A) (A) (A) (A) (A) (A) (A) (A) (A) (A) (A)
       Virtual   (A) (A) (A) (A) (A) (A) (A) (A) (A) (A) (A) (A)
                 (A) (A) (A) (A) (A) (A) (A) (A) (A) (A) (A) (A)
                 (A) (A) (A) (A) (A) (A) (A) (A) (A) (A) (A) (A)
                 (A) (A) (A) (A) (A) (A) (A) (A) (A) (A) (A) (A)
                 (A) (A) (A) (A) (A) (A) (A) (A) (A) (A) (A) (A)
                 (A) (A) (A) (A) (A) (A) (A) (A) (A) (A) (A) (A)
                 (A) (A) (A) (A) (A) (A) (A) (A) (A) (A) (A) (A)
                 (A) (A) (A) (A) (A) (A) (A) (A) (A) (A) (A) (A)
                 (A) (A) (A) (A) (A) (A) (A) (A) (A) (A) (A) (A)
                 (A) (A) (A) (A) (A) (A) (A) (A) (A) (A) (A) (A)
                 (A) (A) (A) (A) (A) (A) (A) (A) (A) (A) (A) (A)
                 (A) (A) (A) (A) (A) (A) (A) (A) (A) (A) (A)
 The electronic state of the initial guess is 1-A.
 Leave Link  401 at Wed Jul 10 16:50:17 2013, MaxMem=  131072000 cpu:       7.4
 (Enter /cerebro/home/software/apps/g09/l502.exe)
 Closed shell SCF:
 Requested convergence on RMS density matrix=1.00D-11 within 128 cycles.
 Requested convergence on MAX density matrix=1.00D-09.
 Requested convergence on             energy=1.00D-09.
 No special actions if energy rises.
 Using DIIS extrapolation, IDIIS=  1040.
 Integral symmetry usage will be decided dynamically.
       281469 words used for storage of precomputed grid.
 Keep R1 ints in memory in canonical form, NReq=113664361.
 IEnd=      390694 IEndB=      390694 NGot=   131072000 MDV=    20042794
 LenX=    20042794 LenY=    20012769
 Symmetry not used in FoFDir.
 MinBra= 0 MaxBra= 2 Meth= 1.
 IRaf=       0 NMat=   1 IRICut=       1 DoRegI=T DoRafI=F ISym2E= 0 JSym2E=0.

 Cycle   1  Pass 1  IDiag  1:
 E= -616.716460581272    
 DIIS: error= 2.35D-02 at cycle   1 NSaved=   1.
 NSaved= 1 IEnMin= 1 EnMin= -616.716460581272     IErMin= 1 ErrMin= 2.35D-02
 ErrMax= 2.35D-02 EMaxC= 1.00D-01 BMatC= 2.09D-01 BMatP= 2.09D-01
 IDIUse=3 WtCom= 7.65D-01 WtEn= 2.35D-01
 Coeff-Com:  0.100D+01
 Coeff-En:   0.100D+01
 Coeff:      0.100D+01
 Gap=     0.393 Goal=   None    Shift=    0.000
 GapD=    0.393 DampG=1.000 DampE=0.500 DampFc=0.5000 IDamp=-1.
 Damping current iteration by 5.00D-01
 RMSDP=6.42D-03 MaxDP=1.49D-01              OVMax= 2.20D-01

 Cycle   2  Pass 1  IDiag  1:
 E= -616.789134473612     Delta-E=       -0.072673892341 Rises=F Damp=T
 DIIS: error= 6.44D-03 at cycle   2 NSaved=   2.
 NSaved= 2 IEnMin= 2 EnMin= -616.789134473612     IErMin= 2 ErrMin= 6.44D-03
 ErrMax= 6.44D-03 EMaxC= 1.00D-01 BMatC= 1.31D-02 BMatP= 2.09D-01
 IDIUse=3 WtCom= 9.36D-01 WtEn= 6.44D-02
 Coeff-Com:  0.429D-01 0.957D+00
 Coeff-En:   0.185D+00 0.815D+00
 Coeff:      0.521D-01 0.948D+00
 Gap=     0.285 Goal=   None    Shift=    0.000
 RMSDP=4.43D-03 MaxDP=2.12D-01 DE=-7.27D-02 OVMax= 1.28D-01

 Cycle   3  Pass 1  IDiag  1:
 E= -616.886701028533     Delta-E=       -0.097566554921 Rises=F Damp=F
 DIIS: error= 6.43D-03 at cycle   3 NSaved=   3.
 NSaved= 3 IEnMin= 3 EnMin= -616.886701028533     IErMin= 3 ErrMin= 6.43D-03
 ErrMax= 6.43D-03 EMaxC= 1.00D-01 BMatC= 5.45D-03 BMatP= 1.31D-02
 IDIUse=3 WtCom= 9.36D-01 WtEn= 6.43D-02
 Coeff-Com: -0.594D-01 0.352D+00 0.708D+00
 Coeff-En:   0.000D+00 0.000D+00 0.100D+01
 Coeff:     -0.556D-01 0.329D+00 0.727D+00
 Gap=     0.257 Goal=   None    Shift=    0.000
 RMSDP=1.87D-03 MaxDP=6.06D-02 DE=-9.76D-02 OVMax= 2.98D-02

 Cycle   4  Pass 1  IDiag  1:
 E= -616.890801392187     Delta-E=       -0.004100363653 Rises=F Damp=F
 DIIS: error= 3.36D-03 at cycle   4 NSaved=   4.
 NSaved= 4 IEnMin= 4 EnMin= -616.890801392187     IErMin= 4 ErrMin= 3.36D-03
 ErrMax= 3.36D-03 EMaxC= 1.00D-01 BMatC= 2.06D-03 BMatP= 5.45D-03
 IDIUse=3 WtCom= 9.66D-01 WtEn= 3.36D-02
 Coeff-Com: -0.360D-01 0.122D+00 0.440D+00 0.474D+00
 Coeff-En:   0.000D+00 0.000D+00 0.247D+00 0.753D+00
 Coeff:     -0.348D-01 0.118D+00 0.434D+00 0.483D+00
 Gap=     0.247 Goal=   None    Shift=    0.000
 RMSDP=5.81D-04 MaxDP=1.92D-02 DE=-4.10D-03 OVMax= 1.37D-02

 Cycle   5  Pass 1  IDiag  1:
 E= -616.892721355020     Delta-E=       -0.001919962833 Rises=F Damp=F
 DIIS: error= 6.18D-04 at cycle   5 NSaved=   5.
 NSaved= 5 IEnMin= 5 EnMin= -616.892721355020     IErMin= 5 ErrMin= 6.18D-04
 ErrMax= 6.18D-04 EMaxC= 1.00D-01 BMatC= 8.29D-05 BMatP= 2.06D-03
 IDIUse=3 WtCom= 9.94D-01 WtEn= 6.18D-03
 Coeff-Com: -0.139D-01 0.410D-01 0.188D+00 0.247D+00 0.539D+00
 Coeff-En:   0.000D+00 0.000D+00 0.000D+00 0.000D+00 0.100D+01
 Coeff:     -0.138D-01 0.407D-01 0.187D+00 0.245D+00 0.541D+00
 Gap=     0.247 Goal=   None    Shift=    0.000
 RMSDP=9.93D-05 MaxDP=3.39D-03 DE=-1.92D-03 OVMax= 6.67D-03

 Cycle   6  Pass 1  IDiag  1:
 E= -616.892794027384     Delta-E=       -0.000072672364 Rises=F Damp=F
 DIIS: error= 2.98D-04 at cycle   6 NSaved=   6.
 NSaved= 6 IEnMin= 6 EnMin= -616.892794027384     IErMin= 6 ErrMin= 2.98D-04
 ErrMax= 2.98D-04 EMaxC= 1.00D-01 BMatC= 1.58D-05 BMatP= 8.29D-05
 IDIUse=3 WtCom= 9.97D-01 WtEn= 2.98D-03
 Coeff-Com: -0.334D-02 0.628D-02 0.518D-01 0.762D-01 0.326D+00 0.543D+00
 Coeff-En:   0.000D+00 0.000D+00 0.000D+00 0.000D+00 0.158D+00 0.842D+00
 Coeff:     -0.333D-02 0.626D-02 0.516D-01 0.760D-01 0.325D+00 0.544D+00
 Gap=     0.247 Goal=   None    Shift=    0.000
 RMSDP=4.54D-05 MaxDP=1.51D-03 DE=-7.27D-05 OVMax= 2.16D-03

 Cycle   7  Pass 1  IDiag  1:
 E= -616.892809479537     Delta-E=       -0.000015452153 Rises=F Damp=F
 DIIS: error= 3.27D-05 at cycle   7 NSaved=   7.
 NSaved= 7 IEnMin= 7 EnMin= -616.892809479537     IErMin= 7 ErrMin= 3.27D-05
 ErrMax= 3.27D-05 EMaxC= 1.00D-01 BMatC= 4.19D-07 BMatP= 1.58D-05
 IDIUse=1 WtCom= 1.00D+00 WtEn= 0.00D+00
 Coeff-Com: -0.618D-03 0.214D-03 0.120D-01 0.182D-01 0.105D+00 0.234D+00
 Coeff-Com:  0.630D+00
 Coeff:     -0.618D-03 0.214D-03 0.120D-01 0.182D-01 0.105D+00 0.234D+00
 Coeff:      0.630D+00
 Gap=     0.247 Goal=   None    Shift=    0.000
 RMSDP=8.75D-06 MaxDP=3.04D-04 DE=-1.55D-05 OVMax= 1.54D-04

 Cycle   8  Pass 1  IDiag  1:
 E= -616.892809853518     Delta-E=       -0.000000373981 Rises=F Damp=F
 DIIS: error= 8.79D-06 at cycle   8 NSaved=   8.
 NSaved= 8 IEnMin= 8 EnMin= -616.892809853518     IErMin= 8 ErrMin= 8.79D-06
 ErrMax= 8.79D-06 EMaxC= 1.00D-01 BMatC= 2.05D-08 BMatP= 4.19D-07
 IDIUse=1 WtCom= 1.00D+00 WtEn= 0.00D+00
 Coeff-Com:  0.487D-04-0.359D-03 0.804D-03 0.142D-02 0.180D-01 0.569D-01
 Coeff-Com:  0.241D+00 0.682D+00
 Coeff:      0.487D-04-0.359D-03 0.804D-03 0.142D-02 0.180D-01 0.569D-01
 Coeff:      0.241D+00 0.682D+00
 Gap=     0.247 Goal=   None    Shift=    0.000
 RMSDP=1.84D-06 MaxDP=4.38D-05 DE=-3.74D-07 OVMax= 4.59D-05

 Cycle   9  Pass 1  IDiag  1:
 E= -616.892809872666     Delta-E=       -0.000000019149 Rises=F Damp=F
 DIIS: error= 2.08D-06 at cycle   9 NSaved=   9.
 NSaved= 9 IEnMin= 9 EnMin= -616.892809872666     IErMin= 9 ErrMin= 2.08D-06
 ErrMax= 2.08D-06 EMaxC= 1.00D-01 BMatC= 1.41D-09 BMatP= 2.05D-08
 IDIUse=1 WtCom= 1.00D+00 WtEn= 0.00D+00
 Coeff-Com:  0.451D-04-0.110D-03-0.483D-03-0.660D-03-0.187D-02 0.535D-03
 Coeff-Com:  0.263D-01 0.250D+00 0.726D+00
 Coeff:      0.451D-04-0.110D-03-0.483D-03-0.660D-03-0.187D-02 0.535D-03
 Coeff:      0.263D-01 0.250D+00 0.726D+00
 Gap=     0.247 Goal=   None    Shift=    0.000
 RMSDP=8.23D-07 MaxDP=3.21D-05 DE=-1.91D-08 OVMax= 7.76D-06

 Cycle  10  Pass 1  IDiag  1:
 E= -616.892809874022     Delta-E=       -0.000000001356 Rises=F Damp=F
 DIIS: error= 5.80D-07 at cycle  10 NSaved=  10.
 NSaved=10 IEnMin=10 EnMin= -616.892809874022     IErMin=10 ErrMin= 5.80D-07
 ErrMax= 5.80D-07 EMaxC= 1.00D-01 BMatC= 6.96D-11 BMatP= 1.41D-09
 IDIUse=1 WtCom= 1.00D+00 WtEn= 0.00D+00
 Coeff-Com:  0.132D-04-0.244D-04-0.208D-03-0.293D-03-0.139D-02-0.173D-02
 Coeff-Com:  0.190D-02 0.830D-01 0.302D+00 0.616D+00
 Coeff:      0.132D-04-0.244D-04-0.208D-03-0.293D-03-0.139D-02-0.173D-02
 Coeff:      0.190D-02 0.830D-01 0.302D+00 0.616D+00
 Gap=     0.247 Goal=   None    Shift=    0.000
 RMSDP=1.25D-07 MaxDP=3.35D-06 DE=-1.36D-09 OVMax= 2.22D-06

 Cycle  11  Pass 1  IDiag  1:
 E= -616.892809874085     Delta-E=       -0.000000000063 Rises=F Damp=F
 DIIS: error= 1.10D-07 at cycle  11 NSaved=  11.
 NSaved=11 IEnMin=11 EnMin= -616.892809874085     IErMin=11 ErrMin= 1.10D-07
 ErrMax= 1.10D-07 EMaxC= 1.00D-01 BMatC= 5.74D-12 BMatP= 6.96D-11
 IDIUse=1 WtCom= 1.00D+00 WtEn= 0.00D+00
 Coeff-Com:  0.160D-05-0.134D-05-0.466D-04-0.659D-04-0.369D-03-0.547D-03
 Coeff-Com: -0.987D-03 0.127D-01 0.571D-01 0.259D+00 0.673D+00
 Coeff:      0.160D-05-0.134D-05-0.466D-04-0.659D-04-0.369D-03-0.547D-03
 Coeff:     -0.987D-03 0.127D-01 0.571D-01 0.259D+00 0.673D+00
 Gap=     0.247 Goal=   None    Shift=    0.000
 RMSDP=3.28D-08 MaxDP=1.29D-06 DE=-6.26D-11 OVMax= 4.61D-07

 Cycle  12  Pass 1  IDiag  1:
 E= -616.892809874093     Delta-E=       -0.000000000008 Rises=F Damp=F
 DIIS: error= 1.66D-08 at cycle  12 NSaved=  12.
 NSaved=12 IEnMin=12 EnMin= -616.892809874093     IErMin=12 ErrMin= 1.66D-08
 ErrMax= 1.66D-08 EMaxC= 1.00D-01 BMatC= 8.73D-14 BMatP= 5.74D-12
 IDIUse=1 WtCom= 1.00D+00 WtEn= 0.00D+00
 Coeff-Com: -0.298D-06 0.770D-06-0.301D-06-0.230D-05-0.235D-04-0.146D-04
 Coeff-Com: -0.314D-03-0.143D-02-0.202D-02 0.256D-01 0.116D+00 0.863D+00
 Coeff:     -0.298D-06 0.770D-06-0.301D-06-0.230D-05-0.235D-04-0.146D-04
 Coeff:     -0.314D-03-0.143D-02-0.202D-02 0.256D-01 0.116D+00 0.863D+00
 Gap=     0.247 Goal=   None    Shift=    0.000
 RMSDP=8.61D-09 MaxDP=3.97D-07 DE=-7.62D-12 OVMax= 1.01D-07

 Cycle  13  Pass 1  IDiag  1:
 E= -616.892809874094     Delta-E=       -0.000000000002 Rises=F Damp=F
 DIIS: error= 3.60D-09 at cycle  13 NSaved=  13.
 NSaved=13 IEnMin=13 EnMin= -616.892809874094     IErMin=13 ErrMin= 3.60D-09
 ErrMax= 3.60D-09 EMaxC= 1.00D-01 BMatC= 2.55D-15 BMatP= 8.73D-14
 IDIUse=1 WtCom= 1.00D+00 WtEn= 0.00D+00
 Coeff-Com: -0.101D-06 0.216D-06 0.108D-05 0.986D-06 0.742D-06 0.721D-05
 Coeff-Com: -0.658D-04-0.579D-03-0.164D-02-0.125D-03 0.970D-02 0.186D+00
 Coeff-Com:  0.807D+00
 Coeff:     -0.101D-06 0.216D-06 0.108D-05 0.986D-06 0.742D-06 0.721D-05
 Coeff:     -0.658D-04-0.579D-03-0.164D-02-0.125D-03 0.970D-02 0.186D+00
 Coeff:      0.807D+00
 Gap=     0.247 Goal=   None    Shift=    0.000
 RMSDP=1.54D-09 MaxDP=6.35D-08 DE=-1.71D-12 OVMax= 1.36D-08

 Cycle  14  Pass 1  IDiag  1:
 E= -616.892809874094     Delta-E=        0.000000000000 Rises=F Damp=F
 DIIS: error= 8.55D-10 at cycle  14 NSaved=  14.
 NSaved=14 IEnMin=13 EnMin= -616.892809874094     IErMin=14 ErrMin= 8.55D-10
 ErrMax= 8.55D-10 EMaxC= 1.00D-01 BMatC= 1.88D-16 BMatP= 2.55D-15
 IDIUse=1 WtCom= 1.00D+00 WtEn= 0.00D+00
 Coeff-Com: -0.715D-08 0.153D-07 0.291D-06 0.360D-06 0.932D-06 0.256D-05
 Coeff-Com: -0.495D-05-0.892D-04-0.387D-03-0.140D-02-0.323D-02 0.116D-01
 Coeff-Com:  0.250D+00 0.744D+00
 Coeff:     -0.715D-08 0.153D-07 0.291D-06 0.360D-06 0.932D-06 0.256D-05
 Coeff:     -0.495D-05-0.892D-04-0.387D-03-0.140D-02-0.323D-02 0.116D-01
 Coeff:      0.250D+00 0.744D+00
 Gap=     0.247 Goal=   None    Shift=    0.000
 RMSDP=5.90D-10 MaxDP=2.64D-08 DE= 1.14D-13 OVMax= 3.25D-09

 Cycle  15  Pass 1  IDiag  1:
 E= -616.892809874095     Delta-E=       -0.000000000001 Rises=F Damp=F
 DIIS: error= 1.49D-10 at cycle  15 NSaved=  15.
 NSaved=15 IEnMin=15 EnMin= -616.892809874095     IErMin=15 ErrMin= 1.49D-10
 ErrMax= 1.49D-10 EMaxC= 1.00D-01 BMatC= 4.10D-18 BMatP= 1.88D-16
 IDIUse=1 WtCom= 1.00D+00 WtEn= 0.00D+00
 Coeff-Com:  0.702D-09-0.134D-08 0.364D-07 0.698D-07 0.178D-06 0.367D-06
 Coeff-Com:  0.682D-06-0.494D-06-0.325D-04-0.262D-03-0.988D-03-0.337D-02
 Coeff-Com:  0.244D-01 0.149D+00 0.831D+00
 Coeff:      0.702D-09-0.134D-08 0.364D-07 0.698D-07 0.178D-06 0.367D-06
 Coeff:      0.682D-06-0.494D-06-0.325D-04-0.262D-03-0.988D-03-0.337D-02
 Coeff:      0.244D-01 0.149D+00 0.831D+00
 Gap=     0.247 Goal=   None    Shift=    0.000
 RMSDP=9.67D-11 MaxDP=4.28D-09 DE=-1.14D-12 OVMax= 8.61D-10

 Cycle  16  Pass 1  IDiag  1:
 E= -616.892809874096     Delta-E=        0.000000000000 Rises=F Damp=F
 DIIS: error= 4.03D-11 at cycle  16 NSaved=  16.
 NSaved=16 IEnMin=16 EnMin= -616.892809874096     IErMin=16 ErrMin= 4.03D-11
 ErrMax= 4.03D-11 EMaxC= 1.00D-01 BMatC= 1.86D-19 BMatP= 4.10D-18
 IDIUse=1 WtCom= 1.00D+00 WtEn= 0.00D+00
 Large coefficients: NSaved= 16 BigCof=    0.00 CofMax=   10.00 Det=-1.88D-18
 Inversion failed.  Reducing to 15 matrices.
 Coeff-Com: -0.155D-09 0.363D-08 0.118D-07 0.365D-07 0.784D-07 0.336D-06
 Coeff-Com:  0.154D-05 0.137D-05-0.159D-04-0.131D-03-0.988D-03-0.268D-02
 Coeff-Com:  0.672D-02 0.194D+00 0.803D+00
 Coeff:     -0.155D-09 0.363D-08 0.118D-07 0.365D-07 0.784D-07 0.336D-06
 Coeff:      0.154D-05 0.137D-05-0.159D-04-0.131D-03-0.988D-03-0.268D-02
 Coeff:      0.672D-02 0.194D+00 0.803D+00
 Gap=     0.247 Goal=   None    Shift=    0.000
 RMSDP=2.46D-11 MaxDP=9.18D-10 DE=-2.27D-13 OVMax= 1.40D-10

 Cycle  17  Pass 1  IDiag  1:
 E= -616.892809874094     Delta-E=        0.000000000002 Rises=F Damp=F
 DIIS: error= 8.61D-12 at cycle  17 NSaved=  16.
 NSaved=16 IEnMin=15 EnMin= -616.892809874096     IErMin=16 ErrMin= 8.61D-12
 ErrMax= 8.61D-12 EMaxC= 1.00D-01 BMatC= 7.38D-21 BMatP= 1.86D-19
 IDIUse=1 WtCom= 1.00D+00 WtEn= 0.00D+00
 Large coefficients: NSaved= 16 BigCof=    0.00 CofMax=   10.00 Det=-9.50D-20
 Inversion failed.  Reducing to 15 matrices.
 Coeff-Com: -0.102D-08-0.579D-09-0.134D-08 0.299D-08 0.497D-07 0.440D-06
 Coeff-Com:  0.202D-05 0.800D-05 0.731D-05-0.119D-03-0.172D-02-0.480D-02
 Coeff-Com:  0.193D-01 0.216D+00 0.772D+00
 Coeff:     -0.102D-08-0.579D-09-0.134D-08 0.299D-08 0.497D-07 0.440D-06
 Coeff:      0.202D-05 0.800D-05 0.731D-05-0.119D-03-0.172D-02-0.480D-02
 Coeff:      0.193D-01 0.216D+00 0.772D+00
 Gap=     0.247 Goal=   None    Shift=    0.000
 RMSDP=8.25D-12 MaxDP=3.83D-10 DE= 2.05D-12 OVMax= 3.42D-11

 SCF Done:  E(RB3LYP) =  -616.892809874     A.U. after   17 cycles
             Convg  =    0.8251D-11             -V/T =  2.0030
 KE= 6.150574978111D+02 PE=-1.881094470619D+03 EE= 4.369695633636D+02
 Leave Link  502 at Wed Jul 10 16:54:03 2013, MaxMem=  131072000 cpu:     225.3
 (Enter /cerebro/home/software/apps/g09/l801.exe)
 Range of M.O.s used for correlation:     1   167
 NBasis=   167 NAE=    24 NBE=    24 NFC=     0 NFV=     0
 NROrb=    167 NOA=    24 NOB=    24 NVA=   143 NVB=   143

 **** Warning!!: The largest alpha MO coefficient is  0.61519537D+02

 Leave Link  801 at Wed Jul 10 16:54:03 2013, MaxMem=  131072000 cpu:       0.1
 (Enter /cerebro/home/software/apps/g09/l1002.exe)
 Minotr:  Closed shell wavefunction.
          Direct CPHF calculation.
          Differentiating once with respect to magnetic field using GIAOs.
          Electric field/nuclear overlap derivatives assumed to be zero.
          Requested convergence is 1.0D-11 RMS, and 1.0D-10 maximum.
          NewPWx=F KeepS1=T KeepF1=T KeepIn=T MapXYZ=F SortEE=F KeepMc=T.
          MDV=     131071900 using IRadAn=       4.
 Generate precomputed XC quadrature information.
          Solving linear equations separately, MaxMat=       0.
          Doing perturbations at frequencies    0.071980    0.077357    0.104503    0.128347
 FoFCou: FMM=F IPFlag=           0 FMFlag=           0 FMFlg1=           0
         NFxFlg=           0 DoJE=F BraDBF=F KetDBF=T FulRan=T
         Omega=  0.000000  0.000000  1.000000  0.000000  0.000000 ICntrl=    6100 IOpCl=  0
         NMat0=    1 NMatS0=    1 NMatT0=    0 NMatD0=    1 NMtDS0=    0 NMtDT0=    0
         I1Cent=           7 NGrid=          12.
 Symmetry not used in FoFCou.
 Integrals replicated using symmetry in FoFDir.
 MinBra= 0 MaxBra= 2 Meth= 1.
 IRaf=       0 NMat=  24 IRICut=      30 DoRegI=T DoRafI=T ISym2E= 2 JSym2E=2.
 CalDSu exits because no D1Ps are significant.
          There are    12 degrees of freedom in the 1st order CPHF.  IDoFFX=0.
 LinEq1:  Iter=  0 NonCon=    12 RMS=5.69D-02 Max=1.56D+00
 AX will form    12 AO Fock derivatives at one time.
 LinEq1:  Iter=  1 NonCon=    12 RMS=1.64D-02 Max=7.76D-01
 LinEq1:  Iter=  2 NonCon=    12 RMS=1.27D-02 Max=6.92D-01
 LinEq1:  Iter=  3 NonCon=    12 RMS=6.54D-03 Max=2.05D-01
 LinEq1:  Iter=  4 NonCon=    12 RMS=4.31D-03 Max=8.02D-02
 LinEq1:  Iter=  5 NonCon=    12 RMS=1.70D-03 Max=5.63D-02
 LinEq1:  Iter=  6 NonCon=    12 RMS=9.59D-04 Max=1.98D-02
 LinEq1:  Iter=  7 NonCon=    12 RMS=3.42D-04 Max=5.79D-03
 LinEq1:  Iter=  8 NonCon=    12 RMS=1.41D-04 Max=2.86D-03
 LinEq1:  Iter=  9 NonCon=    12 RMS=5.14D-05 Max=8.28D-04
 LinEq1:  Iter= 10 NonCon=    12 RMS=2.02D-05 Max=3.06D-04
 LinEq1:  Iter= 11 NonCon=    12 RMS=7.60D-06 Max=1.45D-04
 LinEq1:  Iter= 12 NonCon=    12 RMS=3.30D-06 Max=4.92D-05
 LinEq1:  Iter= 13 NonCon=    12 RMS=1.28D-06 Max=2.64D-05
 LinEq1:  Iter= 14 NonCon=    12 RMS=4.26D-07 Max=1.20D-05
 LinEq1:  Iter= 15 NonCon=    12 RMS=1.14D-07 Max=3.09D-06
 LinEq1:  Iter= 16 NonCon=    12 RMS=3.85D-08 Max=9.04D-07
 LinEq1:  Iter= 17 NonCon=    12 RMS=1.04D-08 Max=1.63D-07
 LinEq1:  Iter= 18 NonCon=    12 RMS=2.71D-09 Max=5.16D-08
 LinEq1:  Iter= 19 NonCon=    12 RMS=7.12D-10 Max=2.19D-08
 LinEq1:  Iter= 20 NonCon=    12 RMS=1.86D-10 Max=4.27D-09
 LinEq1:  Iter= 21 NonCon=     9 RMS=6.65D-11 Max=1.78D-09
 LinEq1:  Iter= 22 NonCon=     3 RMS=1.44D-11 Max=2.50D-10
 LinEq1:  Iter= 23 NonCon=     0 RMS=4.97D-12 Max=6.65D-11
 Linear equations converged to 1.000D-11 1.000D-10 after    23 iterations.
 FullF1:  Do perturbations    1 to    12.
 Dipole-magnetic dipole polarizability for W=    0.071980:
                 1             2             3 
      1   0.505349D+01 -0.545312D+00 -0.703628D+01
      2  -0.900708D+01 -0.498182D+01 -0.197885D+02
      3   0.243972D+02  0.931732D+01  0.153334D+01
 w=    0.071980 a.u., Optical Rotation Beta=     -0.5350 au.
 Molar Mass =     90.5523 grams/mole, [Alpha] ( 6330.0 A) =     -197.92 deg.
 Dipole-magnetic dipole polarizability for W=    0.077357:
                 1             2             3 
      1   0.512898D+01 -0.532452D+00 -0.702373D+01
      2  -0.915311D+01 -0.502816D+01 -0.198633D+02
      3   0.246114D+02  0.941055D+01  0.156000D+01
 w=    0.077357 a.u., Optical Rotation Beta=     -0.5536 au.
 Molar Mass =     90.5523 grams/mole, [Alpha] ( 5890.0 A) =     -236.55 deg.
 Dipole-magnetic dipole polarizability for W=    0.104503:
                 1             2             3 
      1   0.565365D+01 -0.436081D+00 -0.692867D+01
      2  -0.101461D+02 -0.533180D+01 -0.203457D+02
      3   0.261025D+02  0.100587D+02  0.174782D+01
 w=    0.104503 a.u., Optical Rotation Beta=     -0.6899 au.
 Molar Mass =     90.5523 grams/mole, [Alpha] ( 4360.0 A) =     -537.97 deg.
 Dipole-magnetic dipole polarizability for W=    0.128347:
                 1             2             3 
      1   0.640739D+01 -0.279771D+00 -0.677592D+01
      2  -0.115023D+02 -0.571633D+01 -0.209419D+02
      3   0.282578D+02  0.109896D+02  0.202442D+01
 w=    0.128347 a.u., Optical Rotation Beta=     -0.9052 au.
 Molar Mass =     90.5523 grams/mole, [Alpha] ( 3550.0 A) =    -1064.67 deg.
 End of Minotr Frequency-dependent properties on file   721 Mask=       2 NFrqRd=     4 NDeriv=     1 LenFil=      42:
 Frequencies=    0.071980    0.077357    0.104503    0.128347
 Property number 2 -- FD Optical Rotation Tensor frequency  1    0.071980:
                 1             2             3 
      1   0.505349D+01 -0.545312D+00 -0.703628D+01
      2  -0.900708D+01 -0.498182D+01 -0.197885D+02
      3   0.243972D+02  0.931732D+01  0.153334D+01
 Property number 2 -- FD Optical Rotation Tensor frequency  2    0.077357:
                 1             2             3 
      1   0.512898D+01 -0.532452D+00 -0.702373D+01
      2  -0.915311D+01 -0.502816D+01 -0.198633D+02
      3   0.246114D+02  0.941055D+01  0.156000D+01
 Property number 2 -- FD Optical Rotation Tensor frequency  3    0.104503:
                 1             2             3 
      1   0.565365D+01 -0.436081D+00 -0.692867D+01
      2  -0.101461D+02 -0.533180D+01 -0.203457D+02
      3   0.261025D+02  0.100587D+02  0.174782D+01
 Property number 2 -- FD Optical Rotation Tensor frequency  4    0.128347:
                 1             2             3 
      1   0.640739D+01 -0.279771D+00 -0.677592D+01
      2  -0.115023D+02 -0.571633D+01 -0.209419D+02
      3   0.282578D+02  0.109896D+02  0.202442D+01
 End of Minotr Frequency-dependent properties file   722 does not exist.
 Leave Link 1002 at Wed Jul 10 17:19:08 2013, MaxMem=  131072000 cpu:    1505.1
 (Enter /cerebro/home/software/apps/g09/l601.exe)
 Copying SCF densities to generalized density rwf, IOpCl= 0 IROHF=0.

 **********************************************************************

            Population analysis using the SCF density.

 **********************************************************************

 Orbital symmetries:
       Occupied  (A) (A) (A) (A) (A) (A) (A) (A) (A) (A) (A) (A)
                 (A) (A) (A) (A) (A) (A) (A) (A) (A) (A) (A) (A)
       Virtual   (A) (A) (A) (A) (A) (A) (A) (A) (A) (A) (A) (A)
                 (A) (A) (A) (A) (A) (A) (A) (A) (A) (A) (A) (A)
                 (A) (A) (A) (A) (A) (A) (A) (A) (A) (A) (A) (A)
                 (A) (A) (A) (A) (A) (A) (A) (A) (A) (A) (A) (A)
                 (A) (A) (A) (A) (A) (A) (A) (A) (A) (A) (A) (A)
                 (A) (A) (A) (A) (A) (A) (A) (A) (A) (A) (A) (A)
                 (A) (A) (A) (A) (A) (A) (A) (A) (A) (A) (A) (A)
                 (A) (A) (A) (A) (A) (A) (A) (A) (A) (A) (A) (A)
                 (A) (A) (A) (A) (A) (A) (A) (A) (A) (A) (A) (A)
                 (A) (A) (A) (A) (A) (A) (A) (A) (A) (A) (A) (A)
                 (A) (A) (A) (A) (A) (A) (A) (A) (A) (A) (A) (A)
                 (A) (A) (A) (A) (A) (A) (A) (A) (A) (A) (A)
 The electronic state is 1-A.
 Alpha  occ. eigenvalues -- -101.53435 -10.24582 -10.19522 -10.18422 -10.17974
 Alpha  occ. eigenvalues --   -9.44885  -7.21316  -7.20375  -7.20362  -0.87050
 Alpha  occ. eigenvalues --   -0.78559  -0.74902  -0.63722  -0.57794  -0.48802
 Alpha  occ. eigenvalues --   -0.47800  -0.44821  -0.42428  -0.40070  -0.36974
 Alpha  occ. eigenvalues --   -0.36474  -0.30782  -0.29958  -0.27942
 Alpha virt. eigenvalues --   -0.03231  -0.00750   0.00653   0.00750   0.01941
 Alpha virt. eigenvalues --    0.02803   0.03844   0.04139   0.06407   0.06507
 Alpha virt. eigenvalues --    0.07301   0.08268   0.08777   0.09933   0.11171
 Alpha virt. eigenvalues --    0.11532   0.11824   0.12236   0.12918   0.13090
 Alpha virt. eigenvalues --    0.13505   0.14177   0.15015   0.15617   0.15995
 Alpha virt. eigenvalues --    0.16443   0.17172   0.18750   0.19206   0.21424
 Alpha virt. eigenvalues --    0.22293   0.22772   0.24711   0.25937   0.27491
 Alpha virt. eigenvalues --    0.30429   0.34296   0.35628   0.38973   0.42642
 Alpha virt. eigenvalues --    0.42874   0.43673   0.45864   0.47712   0.49015
 Alpha virt. eigenvalues --    0.49663   0.52398   0.52885   0.56761   0.58864
 Alpha virt. eigenvalues --    0.59832   0.62850   0.63590   0.65480   0.66317
 Alpha virt. eigenvalues --    0.66790   0.68652   0.71126   0.73523   0.74172
 Alpha virt. eigenvalues --    0.78961   0.81532   0.82784   0.86272   0.88991
 Alpha virt. eigenvalues --    0.90063   0.93897   0.96402   0.99870   1.03336
 Alpha virt. eigenvalues --    1.06441   1.08639   1.12297   1.17676   1.20449
 Alpha virt. eigenvalues --    1.30889   1.38612   1.42887   1.44975   1.46502
 Alpha virt. eigenvalues --    1.50757   1.53721   1.55527   1.58708   1.60695
 Alpha virt. eigenvalues --    1.63991   1.67602   1.69307   1.70314   1.72708
 Alpha virt. eigenvalues --    1.78047   1.79597   1.86923   1.87702   1.93668
 Alpha virt. eigenvalues --    1.99143   2.02330   2.07679   2.11254   2.17744
 Alpha virt. eigenvalues --    2.19580   2.20102   2.25419   2.30499   2.31248
 Alpha virt. eigenvalues --    2.35413   2.39449   2.45797   2.46440   2.49116
 Alpha virt. eigenvalues --    2.53559   2.56582   2.57161   2.59365   2.61389
 Alpha virt. eigenvalues --    2.64383   2.73048   2.73970   2.74856   2.79399
 Alpha virt. eigenvalues --    2.86084   2.87925   2.93118   3.07086   3.10720
 Alpha virt. eigenvalues --    3.19441   3.42409   3.51048   3.71765   3.80732
 Alpha virt. eigenvalues --    3.81530   3.94602   4.11902   4.29715   9.75577
 Alpha virt. eigenvalues --   23.72943  23.79999  23.96416  24.24411  25.93211
 Alpha virt. eigenvalues --   25.97943  26.45400 215.74586
          Condensed to atoms (all electrons):
              1          2          3          4          5          6
     1  C    5.432864   0.138936  -0.032070   0.115880  -0.008124   0.374976
     2  C    0.138936   5.391817   0.039042  -0.091938  -0.017242  -0.044012
     3  C   -0.032070   0.039042   5.331817   0.394366  -0.037431   0.024329
     4  C    0.115880  -0.091938   0.394366   5.398604   0.377208  -0.013115
     5  H   -0.008124  -0.017242  -0.037431   0.377208   0.573579   0.001088
     6  H    0.374976  -0.044012   0.024329  -0.013115   0.001088   0.548832
     7  H    0.004361   0.017354  -0.015003   0.392974  -0.041355   0.000147
     8  H   -0.019126  -0.019346   0.337091  -0.037422   0.017067  -0.001827
     9  H   -0.040136   0.476151  -0.141068   0.016354   0.009364  -0.006635
    10  H    0.399424  -0.014756  -0.055362  -0.001709   0.002663  -0.019618
    11  H    0.369007  -0.053868   0.025521   0.005797  -0.000871  -0.026727
    12  Cl  -0.046113   0.009830   0.005672   0.066894  -0.001361   0.010421
              7          8          9         10         11         12
     1  C    0.004361  -0.019126  -0.040136   0.399424   0.369007  -0.046113
     2  C    0.017354  -0.019346   0.476151  -0.014756  -0.053868   0.009830
     3  C   -0.015003   0.337091  -0.141068  -0.055362   0.025521   0.005672
     4  C    0.392974  -0.037422   0.016354  -0.001709   0.005797   0.066894
     5  H   -0.041355   0.017067   0.009364   0.002663  -0.000871  -0.001361
     6  H    0.000147  -0.001827  -0.006635  -0.019618  -0.026727   0.010421
     7  H    0.534605  -0.020898  -0.002185  -0.001057   0.000098  -0.003484
     8  H   -0.020898   0.554698   0.005450   0.004926  -0.002697   0.019383
     9  H   -0.002185   0.005450   0.521599   0.010247  -0.012834  -0.050637
    10  H   -0.001057   0.004926   0.010247   0.550038  -0.034157   0.006724
    11  H    0.000098  -0.002697  -0.012834  -0.034157   0.575278   0.018548
    12  Cl  -0.003484   0.019383  -0.050637   0.006724   0.018548  17.020045
 Mulliken atomic charges:
              1
     1  C   -0.689879
     2  C    0.168033
     3  C    0.123096
     4  C   -0.623893
     5  H    0.125414
     6  H    0.152140
     7  H    0.134443
     8  H    0.162699
     9  H    0.214328
    10  H    0.152636
    11  H    0.136904
    12  Cl  -0.055922
 Sum of Mulliken atomic charges =   0.00000
 Mulliken charges with hydrogens summed into heavy atoms:
              1
     1  C   -0.248199
     2  C    0.382361
     3  C    0.285795
     4  C   -0.364035
    12  Cl  -0.055922
 Sum of Mulliken charges with hydrogens summed into heavy atoms =   0.00000
 Electronic spatial extent (au):  <R**2>=            627.3196
 Charge=              0.0000 electrons
 Dipole moment (field-independent basis, Debye):
    X=             -1.6701    Y=              1.6007    Z=             -0.3348  Tot=              2.3374
 Quadrupole moment (field-independent basis, Debye-Ang):
   XX=            -39.3809   YY=            -39.8846   ZZ=            -37.3412
   XY=              2.2841   XZ=             -0.0927   YZ=             -0.2646
 Traceless Quadrupole moment (field-independent basis, Debye-Ang):
   XX=             -0.5120   YY=             -1.0157   ZZ=              1.5277
   XY=              2.2841   XZ=             -0.0927   YZ=             -0.2646
 Octapole moment (field-independent basis, Debye-Ang**2):
  XXX=             -2.3433  YYY=              2.0278  ZZZ=             -0.5824  XYY=              4.2040
  XXY=             -4.8100  XXZ=              0.3017  XZZ=             -0.7201  YZZ=             -0.5492
  YYZ=             -0.5064  XYZ=             -0.3727
 Hexadecapole moment (field-independent basis, Debye-Ang**3):
 XXXX=           -487.7015 YYYY=           -273.1101 ZZZZ=            -81.0558 XXXY=             10.3193
 XXXZ=             -3.4292 YYYX=             -9.7307 YYYZ=             -2.5870 ZZZX=              0.6570
 ZZZY=              0.8694 XXYY=           -129.2552 XXZZ=            -96.7377 YYZZ=            -61.7271
 XXYZ=             -3.1722 YYXZ=              0.4701 ZZXY=              1.4202
 N-N= 2.121745995698D+02 E-N=-1.881094470618D+03  KE= 6.150574978111D+02
 No NMR shielding tensors so no spin-rotation constants.
 Leave Link  601 at Wed Jul 10 17:19:09 2013, MaxMem=  131072000 cpu:       0.2
 (Enter /cerebro/home/software/apps/g09/l9999.exe)
 AllDun Frequency-dependent properties on file 20721 Mask=       2 NFrqRd=     4 NDeriv=     1 LenFil=      42:
 Frequencies=    0.071980    0.077357    0.104503    0.128347
 Property number 2 -- FD Optical Rotation Tensor frequency  1    0.071980:
                 1             2             3 
      1   0.507543D+01 -0.579976D+00 -0.709059D+01
      2  -0.896368D+01 -0.500961D+01 -0.197162D+02
      3   0.244544D+02  0.929141D+01  0.153919D+01
 Property number 2 -- FD Optical Rotation Tensor frequency  2    0.077357:
                 1             2             3 
      1   0.515119D+01 -0.567110D+00 -0.707840D+01
      2  -0.910915D+01 -0.505554D+01 -0.197903D+02
      3   0.246694D+02  0.938444D+01  0.156517D+01
 Property number 2 -- FD Optical Rotation Tensor frequency  3    0.104503:
                 1             2             3 
      1   0.567781D+01 -0.470607D+00 -0.698587D+01
      2  -0.100981D+02 -0.535619D+01 -0.202680D+02
      3   0.261661D+02  0.100311D+02  0.174805D+01
 Property number 2 -- FD Optical Rotation Tensor frequency  4    0.128347:
                 1             2             3 
      1   0.643465D+01 -0.313904D+00 -0.683657D+01
      2  -0.114481D+02 -0.573618D+01 -0.208579D+02
      3   0.283289D+02  0.109596D+02  0.201701D+01
 1\1\GINC-COMPUTE-0-103\SP\RB3LYP\6-311++G(d,p)\C4H7Cl1\CRAWDAD\10-Jul-
 2013\0\\#P B3LYP/6-311++G** scf(conver=11) int=ultrafine polar=optrot 
 cphf(rdfreq,conver=11)\\(R)-3-chloro-1-butene tau=120\\0,1\C,0,0.45497
 972,1.74331416,0.02373095\C,0,0.02283168,0.37469555,-0.31113222\C,0,-1
 .20544281,-0.09970061,0.42692368\C,0,-2.33851347,-0.49947818,-0.152314
 07\H,0,-2.41334747,-0.55454025,-1.23464505\H,0,1.38436097,1.98935499,-
 0.49334861\H,0,-3.21915158,-0.78716012,0.41101951\H,0,-1.13469334,-0.0
 6612776,1.51243531\H,0,-0.10213397,0.25395567,-1.38634292\H,0,0.667357
 65,1.75096724,1.09803295\H,0,-0.30749565,2.49949162,-0.18863211\Cl,0,1
 .38530559,-0.83792918,0.02187397\\Version=EM64L-G09RevA.02\State=1-A\H
 F=-616.8928099\RMSD=8.251e-12\Dipole=-0.6558669,0.630705,-0.1331063\Qu
 adrupole=-0.3727963,-0.7652714,1.1380677,1.6963537,-0.0737721,-0.19172
 44\PG=C01 [X(C4H7Cl1)]\\@


 KINETICS       FACT
 ---------  =  -------
 MECHANISM     FICTION
 Job cpu time:  0 days  0 hours 28 minutes 59.4 seconds.
 File lengths (MBytes):  RWF=    119 Int=      0 D2E=      0 Chk=      2 Scr=      1
 Normal termination of Gaussian 09 at Wed Jul 10 17:19:09 2013.
