(R)-3-chloro-1-butene tau=120                                           
SP        RB3LYP                                                      6-311++G(d,p)       
Number of atoms                            I               12
Info1-9                                    I   N=           9
          26          26           0           0           0         110
           1          18        -502
Full Title                                 C   N=           3
(R)-3-chloro-1-butene tau=120       
Route                                      C   N=           7
#P B3LYP/6-311++G** scf(conver=11) int=ultrafine polar=optro
t cphf(rdfreq,conver=11)
Charge                                     I                0
Multiplicity                               I                1
Number of electrons                        I               48
Number of alpha electrons                  I               24
Number of beta electrons                   I               24
Number of basis functions                  I              167
Number of independent functions            I              167
Number of point charges in /Mol/           I                0
Number of translation vectors              I                0
Atomic numbers                             I   N=          12
           6           6           6           6           1           1
           1           1           1           1           1          17
Nuclear charges                            R   N=          12
  6.00000000E+00  6.00000000E+00  6.00000000E+00  6.00000000E+00  1.00000000E+00
  1.00000000E+00  1.00000000E+00  1.00000000E+00  1.00000000E+00  1.00000000E+00
  1.00000000E+00  1.70000000E+01
Current cartesian coordinates              R   N=          36
  8.50543684E-01  3.29800343E+00  6.26037637E-02  4.18336567E-02  7.12840067E-01
 -5.84913866E-01 -2.28068902E+00 -1.96042580E-01  7.99378399E-01 -4.41719610E+00
 -9.51338631E-01 -3.04460214E-01 -4.55305826E+00 -1.04575258E+00 -2.35061325E+00
  2.60821044E+00  3.77196035E+00 -9.07682994E-01 -6.08278747E+00 -1.50418839E+00
  7.53088987E-01 -2.15246232E+00 -1.42284759E-01  2.85132394E+00 -1.88496179E-01
  4.94020166E-01 -2.61846307E+00  1.24658164E+00  3.30353122E+00  2.09382450E+00
 -5.92750383E-01  4.72542439E+00 -3.35486062E-01  2.62045937E+00 -1.57549907E+00
  3.99034967E-02
Number of symbols in /Mol/                 I                0
Force Field                                I                0
Atom Types                                 C   N=          12
                                                            
                                                            
                        
Int Atom Types                             I   N=          12
           0           0           0           0           0           0
           0           0           0           0           0           0
MM charges                                 R   N=          12
  0.00000000E+00  0.00000000E+00  0.00000000E+00  0.00000000E+00  0.00000000E+00
  0.00000000E+00  0.00000000E+00  0.00000000E+00  0.00000000E+00  0.00000000E+00
  0.00000000E+00  0.00000000E+00
Integer atomic weights                     I   N=          12
          12          12          12          12           1           1
           1           1           1           1           1          35
Real atomic weights                        R   N=          12
  1.20000000E+01  1.20000000E+01  1.20000000E+01  1.20000000E+01  1.00782504E+00
  1.00782504E+00  1.00782504E+00  1.00782504E+00  1.00782504E+00  1.00782504E+00
  1.00782504E+00  3.49688527E+01
Atom fragment info                         I   N=          12
           0           0           0           0           0           0
           0           0           0           0           0           0
Atom residue num                           I   N=          12
           0           0           0           0           0           0
           0           0           0           0           0           0
Nuclear spins                              I   N=          12
           0           0           0           0           1           1
           1           1           1           1           1           3
Nuclear ZEff                               R   N=          12
 -3.60000000E+00 -3.60000000E+00 -3.60000000E+00 -3.60000000E+00 -1.00000000E+00
 -1.00000000E+00 -1.00000000E+00 -1.00000000E+00 -1.00000000E+00 -1.00000000E+00
 -1.00000000E+00 -1.42400000E+01
Nuclear ZNuc                               R   N=          12
  6.00000000E+00  6.00000000E+00  6.00000000E+00  6.00000000E+00  1.00000000E+00
  1.00000000E+00  1.00000000E+00  1.00000000E+00  1.00000000E+00  1.00000000E+00
  1.00000000E+00  1.70000000E+01
Nuclear QMom                               R   N=          12
  0.00000000E+00  0.00000000E+00  0.00000000E+00  0.00000000E+00  0.00000000E+00
  0.00000000E+00  0.00000000E+00  0.00000000E+00  0.00000000E+00  0.00000000E+00
  0.00000000E+00 -8.16500000E+00
Nuclear GFac                               R   N=          12
  0.00000000E+00  0.00000000E+00  0.00000000E+00  0.00000000E+00  2.79284600E+00
  2.79284600E+00  2.79284600E+00  2.79284600E+00  2.79284600E+00  2.79284600E+00
  2.79284600E+00  8.21874000E-01
MicOpt                                     I   N=          12
          -1          -1          -1          -1          -1          -1
          -1          -1          -1          -1          -1          -1
Number of residues                         I                0
Number of secondary structures             I                0
SymInf integers                            I   N=          26
           1           1           1           1           1           0
           0           0           0           0           0           0
           0           0           0           0           0           0
           0           0           0           0           0           0
           0           0
RotTr to input orientation                 R   N=          12
  9.99993689E-01 -2.43070095E-03 -2.59119389E-03  2.41803821E-03  9.99985175E-01
 -4.87881801E-03  2.60301442E-03  4.87252161E-03  9.99984741E-01  1.11109440E-03
 -1.80583607E-03  5.36470021E-04
Number of contracted shells                I               72
Number of primitive shells                 I              126
Pure/Cartesian d shells                    I                0
Pure/Cartesian f shells                    I                0
Highest angular momentum                   I                2
Largest degree of contraction              I                6
Shell types                                I   N=          72
           0          -1          -1          -1          -1          -2
           0          -1          -1          -1          -1          -2
           0          -1          -1          -1          -1          -2
           0          -1          -1          -1          -1          -2
           0           0           0           0           1           0
           0           0           0           1           0           0
           0           0           1           0           0           0
           0           1           0           0           0           0
           1           0           0           0           0           1
           0           0           0           0           1           0
           0           0           0           0           0          -1
           1           1           1           1           1          -2
Number of primitives per shell             I   N=          72
           6           3           1           1           1           1
           6           3           1           1           1           1
           6           3           1           1           1           1
           6           3           1           1           1           1
           3           1           1           1           1           3
           1           1           1           1           3           1
           1           1           1           3           1           1
           1           1           3           1           1           1
           1           3           1           1           1           1
           3           1           1           1           1           6
           3           1           1           1           1           1
           5           2           1           1           1           1
Shell to atom map                          I   N=          72
           1           1           1           1           1           1
           2           2           2           2           2           2
           3           3           3           3           3           3
           4           4           4           4           4           4
           5           5           5           5           5           6
           6           6           6           6           7           7
           7           7           7           8           8           8
           8           8           9           9           9           9
           9          10          10          10          10          10
          11          11          11          11          11          12
          12          12          12          12          12          12
          12          12          12          12          12          12
Primitive exponents                        R   N=         126
  4.56324000E+03  6.82024000E+02  1.54973000E+02  4.44553000E+01  1.30290000E+01
  1.82773000E+00  2.09642000E+01  4.80331000E+00  1.45933000E+00  4.83456000E-01
  1.45585000E-01  4.38000000E-02  6.26000000E-01  4.56324000E+03  6.82024000E+02
  1.54973000E+02  4.44553000E+01  1.30290000E+01  1.82773000E+00  2.09642000E+01
  4.80331000E+00  1.45933000E+00  4.83456000E-01  1.45585000E-01  4.38000000E-02
  6.26000000E-01  4.56324000E+03  6.82024000E+02  1.54973000E+02  4.44553000E+01
  1.30290000E+01  1.82773000E+00  2.09642000E+01  4.80331000E+00  1.45933000E+00
  4.83456000E-01  1.45585000E-01  4.38000000E-02  6.26000000E-01  4.56324000E+03
  6.82024000E+02  1.54973000E+02  4.44553000E+01  1.30290000E+01  1.82773000E+00
  2.09642000E+01  4.80331000E+00  1.45933000E+00  4.83456000E-01  1.45585000E-01
  4.38000000E-02  6.26000000E-01  3.38650000E+01  5.09479000E+00  1.15879000E+00
  3.25840000E-01  1.02741000E-01  3.60000000E-02  7.50000000E-01  3.38650000E+01
  5.09479000E+00  1.15879000E+00  3.25840000E-01  1.02741000E-01  3.60000000E-02
  7.50000000E-01  3.38650000E+01  5.09479000E+00  1.15879000E+00  3.25840000E-01
  1.02741000E-01  3.60000000E-02  7.50000000E-01  3.38650000E+01  5.09479000E+00
  1.15879000E+00  3.25840000E-01  1.02741000E-01  3.60000000E-02  7.50000000E-01
  3.38650000E+01  5.09479000E+00  1.15879000E+00  3.25840000E-01  1.02741000E-01
  3.60000000E-02  7.50000000E-01  3.38650000E+01  5.09479000E+00  1.15879000E+00
  3.25840000E-01  1.02741000E-01  3.60000000E-02  7.50000000E-01  3.38650000E+01
  5.09479000E+00  1.15879000E+00  3.25840000E-01  1.02741000E-01  3.60000000E-02
  7.50000000E-01  1.05819000E+05  1.58720000E+04  3.61965000E+03  1.03080000E+03
  3.39908000E+02  1.24538000E+02  1.24538000E+02  4.95135000E+01  2.08056000E+01
  6.58346000E+00  2.56468000E+00  5.59763000E-01  1.83273000E-01  4.83000000E-02
  5.89776000E+02  1.39849000E+02  4.51413000E+01  1.68733000E+01  2.77152000E+00
  6.74110000E+00  2.77152000E+00  1.02387000E+00  3.81368000E-01  1.09437000E-01
  7.50000000E-01
Contraction coefficients                   R   N=         126
  1.96665025E-03  1.52306019E-02  7.61269097E-02  2.60801033E-01  6.16462078E-01
  2.21006028E-01  1.14660081E-01  9.19999648E-01 -3.03068213E-03  1.00000000E+00
  1.00000000E+00  1.00000000E+00  1.00000000E+00  1.96665025E-03  1.52306019E-02
  7.61269097E-02  2.60801033E-01  6.16462078E-01  2.21006028E-01  1.14660081E-01
  9.19999648E-01 -3.03068213E-03  1.00000000E+00  1.00000000E+00  1.00000000E+00
  1.00000000E+00  1.96665025E-03  1.52306019E-02  7.61269097E-02  2.60801033E-01
  6.16462078E-01  2.21006028E-01  1.14660081E-01  9.19999648E-01 -3.03068213E-03
  1.00000000E+00  1.00000000E+00  1.00000000E+00  1.00000000E+00  1.96665025E-03
  1.52306019E-02  7.61269097E-02  2.60801033E-01  6.16462078E-01  2.21006028E-01
  1.14660081E-01  9.19999648E-01 -3.03068213E-03  1.00000000E+00  1.00000000E+00
  1.00000000E+00  1.00000000E+00  2.54938145E-02  1.90373109E-01  8.52161486E-01
  1.00000000E+00  1.00000000E+00  1.00000000E+00  1.00000000E+00  2.54938145E-02
  1.90373109E-01  8.52161486E-01  1.00000000E+00  1.00000000E+00  1.00000000E+00
  1.00000000E+00  2.54938145E-02  1.90373109E-01  8.52161486E-01  1.00000000E+00
  1.00000000E+00  1.00000000E+00  1.00000000E+00  2.54938145E-02  1.90373109E-01
  8.52161486E-01  1.00000000E+00  1.00000000E+00  1.00000000E+00  1.00000000E+00
  2.54938145E-02  1.90373109E-01  8.52161486E-01  1.00000000E+00  1.00000000E+00
  1.00000000E+00  1.00000000E+00  2.54938145E-02  1.90373109E-01  8.52161486E-01
  1.00000000E+00  1.00000000E+00  1.00000000E+00  1.00000000E+00  2.54938145E-02
  1.90373109E-01  8.52161486E-01  1.00000000E+00  1.00000000E+00  1.00000000E+00
  1.00000000E+00  7.38000247E-04  5.71800191E-03  2.94950099E-02  1.17286039E-01
  3.62949121E-01  5.84149195E-01  1.34176973E-01  6.24249876E-01  2.91755942E-01
  1.00000000E+00  1.00000000E+00  1.00000000E+00  1.00000000E+00  1.00000000E+00
  3.66556935E-03  2.83679194E-02  1.24756603E-01  3.39654631E-01  7.47585963E-01
 -1.57224381E+00  9.92388882E-01  1.00000000E+00  1.00000000E+00  1.00000000E+00
  1.00000000E+00
P(S=P) Contraction coefficients            R   N=         126
  0.00000000E+00  0.00000000E+00  0.00000000E+00  0.00000000E+00  0.00000000E+00
  0.00000000E+00  4.02486927E-02  2.37593957E-01  8.15853851E-01  1.00000000E+00
  1.00000000E+00  1.00000000E+00  0.00000000E+00  0.00000000E+00  0.00000000E+00
  0.00000000E+00  0.00000000E+00  0.00000000E+00  0.00000000E+00  4.02486927E-02
  2.37593957E-01  8.15853851E-01  1.00000000E+00  1.00000000E+00  1.00000000E+00
  0.00000000E+00  0.00000000E+00  0.00000000E+00  0.00000000E+00  0.00000000E+00
  0.00000000E+00  0.00000000E+00  4.02486927E-02  2.37593957E-01  8.15853851E-01
  1.00000000E+00  1.00000000E+00  1.00000000E+00  0.00000000E+00  0.00000000E+00
  0.00000000E+00  0.00000000E+00  0.00000000E+00  0.00000000E+00  0.00000000E+00
  4.02486927E-02  2.37593957E-01  8.15853851E-01  1.00000000E+00  1.00000000E+00
  1.00000000E+00  0.00000000E+00  0.00000000E+00  0.00000000E+00  0.00000000E+00
  0.00000000E+00  0.00000000E+00  0.00000000E+00  0.00000000E+00  0.00000000E+00
  0.00000000E+00  0.00000000E+00  0.00000000E+00  0.00000000E+00  0.00000000E+00
  0.00000000E+00  0.00000000E+00  0.00000000E+00  0.00000000E+00  0.00000000E+00
  0.00000000E+00  0.00000000E+00  0.00000000E+00  0.00000000E+00  0.00000000E+00
  0.00000000E+00  0.00000000E+00  0.00000000E+00  0.00000000E+00  0.00000000E+00
  0.00000000E+00  0.00000000E+00  0.00000000E+00  0.00000000E+00  0.00000000E+00
  0.00000000E+00  0.00000000E+00  0.00000000E+00  0.00000000E+00  0.00000000E+00
  0.00000000E+00  0.00000000E+00  0.00000000E+00  0.00000000E+00  0.00000000E+00
  0.00000000E+00  0.00000000E+00  0.00000000E+00  0.00000000E+00  0.00000000E+00
  0.00000000E+00  0.00000000E+00  0.00000000E+00  0.00000000E+00  0.00000000E+00
  0.00000000E+00  0.00000000E+00  0.00000000E+00  0.00000000E+00  0.00000000E+00
  0.00000000E+00  0.00000000E+00  0.00000000E+00  0.00000000E+00  1.00000000E+00
  0.00000000E+00  0.00000000E+00  0.00000000E+00  0.00000000E+00  0.00000000E+00
  0.00000000E+00  0.00000000E+00  0.00000000E+00  0.00000000E+00  0.00000000E+00
  0.00000000E+00
Coordinates of each shell                  R   N=         216
  8.50543684E-01  3.29800343E+00  6.26037637E-02  8.50543684E-01  3.29800343E+00
  6.26037637E-02  8.50543684E-01  3.29800343E+00  6.26037637E-02  8.50543684E-01
  3.29800343E+00  6.26037637E-02  8.50543684E-01  3.29800343E+00  6.26037637E-02
  8.50543684E-01  3.29800343E+00  6.26037637E-02  4.18336567E-02  7.12840067E-01
 -5.84913866E-01  4.18336567E-02  7.12840067E-01 -5.84913866E-01  4.18336567E-02
  7.12840067E-01 -5.84913866E-01  4.18336567E-02  7.12840067E-01 -5.84913866E-01
  4.18336567E-02  7.12840067E-01 -5.84913866E-01  4.18336567E-02  7.12840067E-01
 -5.84913866E-01 -2.28068902E+00 -1.96042580E-01  7.99378399E-01 -2.28068902E+00
 -1.96042580E-01  7.99378399E-01 -2.28068902E+00 -1.96042580E-01  7.99378399E-01
 -2.28068902E+00 -1.96042580E-01  7.99378399E-01 -2.28068902E+00 -1.96042580E-01
  7.99378399E-01 -2.28068902E+00 -1.96042580E-01  7.99378399E-01 -4.41719610E+00
 -9.51338631E-01 -3.04460214E-01 -4.41719610E+00 -9.51338631E-01 -3.04460214E-01
 -4.41719610E+00 -9.51338631E-01 -3.04460214E-01 -4.41719610E+00 -9.51338631E-01
 -3.04460214E-01 -4.41719610E+00 -9.51338631E-01 -3.04460214E-01 -4.41719610E+00
 -9.51338631E-01 -3.04460214E-01 -4.55305826E+00 -1.04575258E+00 -2.35061325E+00
 -4.55305826E+00 -1.04575258E+00 -2.35061325E+00 -4.55305826E+00 -1.04575258E+00
 -2.35061325E+00 -4.55305826E+00 -1.04575258E+00 -2.35061325E+00 -4.55305826E+00
 -1.04575258E+00 -2.35061325E+00  2.60821044E+00  3.77196035E+00 -9.07682994E-01
  2.60821044E+00  3.77196035E+00 -9.07682994E-01  2.60821044E+00  3.77196035E+00
 -9.07682994E-01  2.60821044E+00  3.77196035E+00 -9.07682994E-01  2.60821044E+00
  3.77196035E+00 -9.07682994E-01 -6.08278747E+00 -1.50418839E+00  7.53088987E-01
 -6.08278747E+00 -1.50418839E+00  7.53088987E-01 -6.08278747E+00 -1.50418839E+00
  7.53088987E-01 -6.08278747E+00 -1.50418839E+00  7.53088987E-01 -6.08278747E+00
 -1.50418839E+00  7.53088987E-01 -2.15246232E+00 -1.42284759E-01  2.85132394E+00
 -2.15246232E+00 -1.42284759E-01  2.85132394E+00 -2.15246232E+00 -1.42284759E-01
  2.85132394E+00 -2.15246232E+00 -1.42284759E-01  2.85132394E+00 -2.15246232E+00
 -1.42284759E-01  2.85132394E+00 -1.88496179E-01  4.94020166E-01 -2.61846307E+00
 -1.88496179E-01  4.94020166E-01 -2.61846307E+00 -1.88496179E-01  4.94020166E-01
 -2.61846307E+00 -1.88496179E-01  4.94020166E-01 -2.61846307E+00 -1.88496179E-01
  4.94020166E-01 -2.61846307E+00  1.24658164E+00  3.30353122E+00  2.09382450E+00
  1.24658164E+00  3.30353122E+00  2.09382450E+00  1.24658164E+00  3.30353122E+00
  2.09382450E+00  1.24658164E+00  3.30353122E+00  2.09382450E+00  1.24658164E+00
  3.30353122E+00  2.09382450E+00 -5.92750383E-01  4.72542439E+00 -3.35486062E-01
 -5.92750383E-01  4.72542439E+00 -3.35486062E-01 -5.92750383E-01  4.72542439E+00
 -3.35486062E-01 -5.92750383E-01  4.72542439E+00 -3.35486062E-01 -5.92750383E-01
  4.72542439E+00 -3.35486062E-01  2.62045937E+00 -1.57549907E+00  3.99034967E-02
  2.62045937E+00 -1.57549907E+00  3.99034967E-02  2.62045937E+00 -1.57549907E+00
  3.99034967E-02  2.62045937E+00 -1.57549907E+00  3.99034967E-02  2.62045937E+00
 -1.57549907E+00  3.99034967E-02  2.62045937E+00 -1.57549907E+00  3.99034967E-02
  2.62045937E+00 -1.57549907E+00  3.99034967E-02  2.62045937E+00 -1.57549907E+00
  3.99034967E-02  2.62045937E+00 -1.57549907E+00  3.99034967E-02  2.62045937E+00
 -1.57549907E+00  3.99034967E-02  2.62045937E+00 -1.57549907E+00  3.99034967E-02
  2.62045937E+00 -1.57549907E+00  3.99034967E-02  2.62045937E+00 -1.57549907E+00
  3.99034967E-02
Constraint Structure                       R   N=          36
  8.50543684E-01  3.29800343E+00  6.26037637E-02  4.18336567E-02  7.12840067E-01
 -5.84913866E-01 -2.28068902E+00 -1.96042580E-01  7.99378399E-01 -4.41719610E+00
 -9.51338631E-01 -3.04460214E-01 -4.55305826E+00 -1.04575258E+00 -2.35061325E+00
  2.60821044E+00  3.77196035E+00 -9.07682994E-01 -6.08278747E+00 -1.50418839E+00
  7.53088987E-01 -2.15246232E+00 -1.42284759E-01  2.85132394E+00 -1.88496179E-01
  4.94020166E-01 -2.61846307E+00  1.24658164E+00  3.30353122E+00  2.09382450E+00
 -5.92750383E-01  4.72542439E+00 -3.35486062E-01  2.62045937E+00 -1.57549907E+00
  3.99034967E-02
Num ILSW                                   I              100
ILSW                                       I   N=         100
           0           0           0           0           2           0
           0           0           0           0         402          -1
           5           0           0           0           0           0
           0           0           0           0           0           0
           1           0           0           0           0           0
           0           0      100000           0          -1           0
           0           0           0           0           0           0
           0           0           0           1           0           0
           0           0           1           0           0           0
           0           0           4          41           0           0
           0           0           5           0           0           0
           0           0           0           0           0           0
           0           0           0           0           0           0
           0           0           0           0           0           0
           0           0           0           0           0           0
           0           0           0           0           0           0
           0           0           0           0
Num RLSW                                   I               41
RLSW                                       R   N=          41
  8.00000000E-01  7.20000000E-01  1.00000000E+00  8.10000000E-01  2.00000000E-01
  0.00000000E+00  0.00000000E+00  1.00000000E+00  0.00000000E+00  0.00000000E+00
  0.00000000E+00  0.00000000E+00  1.00000000E+00  0.00000000E+00  0.00000000E+00
  0.00000000E+00  0.00000000E+00  1.00000000E+00  0.00000000E+00  0.00000000E+00
  0.00000000E+00  0.00000000E+00  1.00000000E+00  0.00000000E+00  0.00000000E+00
  0.00000000E+00  0.00000000E+00  1.00000000E+00  0.00000000E+00  0.00000000E+00
  0.00000000E+00  0.00000000E+00  0.00000000E+00  0.00000000E+00  0.00000000E+00
  0.00000000E+00  0.00000000E+00  0.00000000E+00  1.00000000E+00  1.00000000E+00
  0.00000000E+00
MxBond                                     I                4
NBond                                      I   N=          12
           4           4           3           3           1           1
           1           1           1           1           1           1
IBond                                      I   N=          48
           2           6          10          11           1           3
           9          12           2           4           8           0
           3           5           7           0           4           0
           0           0           1           0           0           0
           4           0           0           0           3           0
           0           0           2           0           0           0
           1           0           0           0           1           0
           0           0           2           0           0           0
RBond                                      R   N=          48
  1.00000000E+00  1.00000000E+00  1.00000000E+00  1.00000000E+00  1.00000000E+00
  1.00000000E+00  1.00000000E+00  1.00000000E+00  1.00000000E+00  2.00000000E+00
  1.00000000E+00  0.00000000E+00  2.00000000E+00  1.00000000E+00  1.00000000E+00
  0.00000000E+00  1.00000000E+00  0.00000000E+00  0.00000000E+00  0.00000000E+00
  1.00000000E+00  0.00000000E+00  0.00000000E+00  0.00000000E+00  1.00000000E+00
  0.00000000E+00  0.00000000E+00  0.00000000E+00  1.00000000E+00  0.00000000E+00
  0.00000000E+00  0.00000000E+00  1.00000000E+00  0.00000000E+00  0.00000000E+00
  0.00000000E+00  1.00000000E+00  0.00000000E+00  0.00000000E+00  0.00000000E+00
  1.00000000E+00  0.00000000E+00  0.00000000E+00  0.00000000E+00  1.00000000E+00
  0.00000000E+00  0.00000000E+00  0.00000000E+00
Virial Ratio                               R      2.002983968278536E+00
SCF Energy                                 R     -6.168928098740935E+02
Total Energy                               R     -6.168928098740935E+02
RMS Density                                R      8.250991475913421E-12
Nuclear derivative order                   I                0
External E-field                           R   N=          35
  0.00000000E+00  0.00000000E+00  0.00000000E+00  0.00000000E+00  0.00000000E+00
  0.00000000E+00  0.00000000E+00  0.00000000E+00  0.00000000E+00  0.00000000E+00
  0.00000000E+00  0.00000000E+00  0.00000000E+00  0.00000000E+00  0.00000000E+00
  0.00000000E+00  0.00000000E+00  0.00000000E+00  0.00000000E+00  0.00000000E+00
  0.00000000E+00  0.00000000E+00  0.00000000E+00  0.00000000E+00  0.00000000E+00
  0.00000000E+00  0.00000000E+00  0.00000000E+00  0.00000000E+00  0.00000000E+00
  0.00000000E+00  0.00000000E+00  0.00000000E+00  0.00000000E+00  0.00000000E+00
IOpCl                                      I                0
IROHF                                      I                0
Alpha Orbital Energies                     R   N=         167
 -1.01534350E+02 -1.02458157E+01 -1.01952208E+01 -1.01842152E+01 -1.01797359E+01
 -9.44884928E+00 -7.21316405E+00 -7.20375196E+00 -7.20362467E+00 -8.70497483E-01
 -7.85588910E-01 -7.49024965E-01 -6.37220804E-01 -5.77941819E-01 -4.88021018E-01
 -4.78002910E-01 -4.48207979E-01 -4.24280012E-01 -4.00696379E-01 -3.69738864E-01
 -3.64741219E-01 -3.07822742E-01 -2.99584605E-01 -2.79416433E-01 -3.23133341E-02
 -7.50401525E-03  6.53337568E-03  7.50198936E-03  1.94132924E-02  2.80260500E-02
  3.84358338E-02  4.13856523E-02  6.40739209E-02  6.50682955E-02  7.30077156E-02
  8.26818623E-02  8.77687635E-02  9.93284522E-02  1.11705369E-01  1.15319243E-01
  1.18244296E-01  1.22361270E-01  1.29183667E-01  1.30896082E-01  1.35053959E-01
  1.41771949E-01  1.50154676E-01  1.56167113E-01  1.59945400E-01  1.64434866E-01
  1.71720264E-01  1.87499836E-01  1.92056604E-01  2.14235083E-01  2.22927175E-01
  2.27721780E-01  2.47114206E-01  2.59368185E-01  2.74908468E-01  3.04290999E-01
  3.42960868E-01  3.56278879E-01  3.89727991E-01  4.26421138E-01  4.28736128E-01
  4.36730591E-01  4.58638720E-01  4.77123473E-01  4.90147367E-01  4.96625090E-01
  5.23975176E-01  5.28852093E-01  5.67614231E-01  5.88637327E-01  5.98317933E-01
  6.28504395E-01  6.35901993E-01  6.54801958E-01  6.63173501E-01  6.67904610E-01
  6.86523659E-01  7.11256441E-01  7.35229985E-01  7.41723674E-01  7.89614126E-01
  8.15322443E-01  8.27837748E-01  8.62717803E-01  8.89910844E-01  9.00625722E-01
  9.38974010E-01  9.64023543E-01  9.98704293E-01  1.03336008E+00  1.06440937E+00
  1.08639356E+00  1.12296766E+00  1.17676188E+00  1.20448530E+00  1.30889186E+00
  1.38611767E+00  1.42886681E+00  1.44974893E+00  1.46502246E+00  1.50756746E+00
  1.53721225E+00  1.55526952E+00  1.58708267E+00  1.60694644E+00  1.63990925E+00
  1.67601764E+00  1.69306523E+00  1.70314322E+00  1.72707741E+00  1.78046538E+00
  1.79597263E+00  1.86922763E+00  1.87701682E+00  1.93667810E+00  1.99143051E+00
  2.02329978E+00  2.07679207E+00  2.11253884E+00  2.17744497E+00  2.19580483E+00
  2.20101969E+00  2.25418729E+00  2.30499016E+00  2.31247622E+00  2.35413224E+00
  2.39448547E+00  2.45796800E+00  2.46440200E+00  2.49115523E+00  2.53559177E+00
  2.56581554E+00  2.57160673E+00  2.59365460E+00  2.61389355E+00  2.64382883E+00
  2.73047770E+00  2.73969902E+00  2.74856249E+00  2.79398567E+00  2.86084419E+00
  2.87925169E+00  2.93118011E+00  3.07086021E+00  3.10719810E+00  3.19441425E+00
  3.42409372E+00  3.51048290E+00  3.71765157E+00  3.80731627E+00  3.81530367E+00
  3.94601873E+00  4.11902430E+00  4.29715275E+00  9.75576956E+00  2.37294335E+01
  2.37999865E+01  2.39641626E+01  2.42441115E+01  2.59321061E+01  2.59794346E+01
  2.64540012E+01  2.15745855E+02
Alpha MO coefficients                      R   N=       27889
  1.01425031E-08  9.41073523E-08 -2.39240226E-06 -2.52911078E-06 -1.47160047E-06
 -3.75526310E-06  1.88090650E-05  1.82247662E-05  1.03741096E-05  4.36987843E-05
  3.43662048E-05  2.25332833E-05  3.04629919E-05 -1.80753241E-03 -1.44055851E-04
  5.48078602E-04  5.10481395E-05  7.57616955E-06 -1.75654788E-06 -7.34944006E-06
  1.51190968E-05 -1.18182461E-06  1.31737051E-06 -2.60321608E-06  1.20840490E-05
 -1.26312489E-05  4.50896840E-06 -1.75771418E-05 -1.31108491E-05  2.30104933E-05
 -1.43884453E-05  1.66589625E-04  1.31342106E-04 -1.32134205E-04 -1.86214326E-05
  3.94491082E-03 -4.47252489E-04  4.61551352E-04  7.72823636E-04  6.39488471E-06
 -1.25647218E-06  2.80458224E-06 -3.88606144E-06  8.39716848E-06 -5.50824342E-07
  1.61898400E-06  4.31932044E-06 -2.63005887E-06 -4.06718757E-06 -7.49510019E-06
 -2.53268171E-05  1.00599368E-05  2.43249650E-05  2.44491367E-05  1.70792205E-05
 -1.10932265E-05 -5.86014441E-05 -1.08210828E-03 -1.16219371E-03 -3.80683039E-04
 -1.10888204E-04  5.93655311E-06  6.24587232E-06 -5.84763576E-06  8.77899885E-07
 -4.14846104E-06  3.40597365E-07 -1.00760630E-06 -1.95698757E-06  6.30926042E-07
  9.09934151E-07  9.89072306E-06  8.27331158E-06 -2.53262733E-06  4.11430681E-07
 -5.13808263E-05 -9.12799177E-05 -2.09478709E-05  6.46419512E-05 -1.61686604E-03
 -3.42979018E-04 -1.75206677E-04 -9.61899404E-05 -4.80453982E-06 -2.37842406E-06
 -3.62688745E-06 -1.80421796E-06 -1.66501325E-06 -2.92307339E-06  3.38686931E-05
  6.53804624E-05  7.63059388E-05  6.36074165E-06 -3.96197972E-08  5.96312052E-06
  1.22953767E-05 -8.66763715E-05  7.01193147E-05  2.24847805E-04  8.85049757E-06
  1.36151791E-05 -1.12919339E-05  2.63225745E-06 -2.40146803E-05 -5.83161081E-05
 -1.44665893E-04 -1.60926850E-06 -4.87154824E-07  1.33139552E-06  5.92423499E-06
 -3.44776248E-05  5.51571019E-05  1.43827166E-04 -1.14039279E-05  1.84988505E-06
  1.32839496E-05 -1.86449240E-06 -5.40023998E-05 -1.51195800E-04  5.51915175E-05
 -2.80817162E-06 -3.15449561E-07 -1.21828704E-05  1.02468617E-05 -7.13229616E-05
 -3.87185337E-05  5.74250520E-05 -4.11680954E-06  1.17408712E-05  1.67509634E-05
 -7.79551004E-06  3.34740643E-05 -1.43626751E-04 -3.01837950E-04 -8.25681623E-07
 -2.87679754E-06 -1.62379252E-06  4.11609607E-01  6.54076162E-01  1.50041170E-02