(R)-3-chloro-1-butene tau=120                                           
SP        RB3LYP                                                      6-311++G(d,p)       
Number of atoms                            I               12
Info1-9                                    I   N=           9
          26          26           0           0           0         110
           1          18        -502
Full Title                                 C   N=           3
(R)-3-chloro-1-butene tau=120       
Route                                      C   N=           7
#P B3LYP/6-311++G** scf(conver=11) int=ultrafine polar=optro
t cphf(rdfreq,conver=11)
Charge                                     I                0
Multiplicity                               I                1
Number of electrons                        I               48
Number of alpha electrons                  I               24
Number of beta electrons                   I               24
Number of basis functions                  I              167
Number of independent functions            I              167
Number of point charges in /Mol/           I                0
Number of translation vectors              I                0
Atomic numbers                             I   N=          12
           6           6           6           6           1           1
           1           1           1           1           1          17
Nuclear charges                            R   N=          12
  6.00000000E+00  6.00000000E+00  6.00000000E+00  6.00000000E+00  1.00000000E+00
  1.00000000E+00  1.00000000E+00  1.00000000E+00  1.00000000E+00  1.00000000E+00
  1.00000000E+00  1.70000000E+01
Current cartesian coordinates              R   N=          36
  8.99580172E-01  3.31175394E+00  7.72584428E-02  1.25222601E-02  6.67269574E-01
 -6.14217199E-01 -2.27734595E+00 -1.80057777E-01  8.06590798E-01 -4.42793413E+00
 -8.79136303E-01 -2.93710898E-01 -4.52467922E+00 -1.19508412E+00 -2.33169223E+00
  2.60682723E+00  3.80648983E+00 -9.68277894E-01 -6.00674159E+00 -1.61121664E+00
  8.03962586E-01 -2.12025639E+00 -1.21683505E-01  2.85475405E+00 -2.91764322E-01
  5.09560899E-01 -2.64457611E+00  1.29318669E+00  3.47032986E+00  2.09697889E+00
 -5.86918417E-01  4.66443149E+00 -4.10365260E-01  2.61114188E+00 -1.59069438E+00
  4.37464175E-02
Number of symbols in /Mol/                 I                0
Force Field                                I                0
Atom Types                                 C   N=          12
                                                            
                                                            
                        
Int Atom Types                             I   N=          12
           0           0           0           0           0           0
           0           0           0           0           0           0
MM charges                                 R   N=          12
  0.00000000E+00  0.00000000E+00  0.00000000E+00  0.00000000E+00  0.00000000E+00
  0.00000000E+00  0.00000000E+00  0.00000000E+00  0.00000000E+00  0.00000000E+00
  0.00000000E+00  0.00000000E+00
Integer atomic weights                     I   N=          12
          12          12          12          12           1           1
           1           1           1           1           1          35
Real atomic weights                        R   N=          12
  1.20000000E+01  1.20000000E+01  1.20000000E+01  1.20000000E+01  1.00782504E+00
  1.00782504E+00  1.00782504E+00  1.00782504E+00  1.00782504E+00  1.00782504E+00
  1.00782504E+00  3.49688527E+01
Atom fragment info                         I   N=          12
           0           0           0           0           0           0
           0           0           0           0           0           0
Atom residue num                           I   N=          12
           0           0           0           0           0           0
           0           0           0           0           0           0
Nuclear spins                              I   N=          12
           0           0           0           0           1           1
           1           1           1           1           1           3
Nuclear ZEff                               R   N=          12
 -3.60000000E+00 -3.60000000E+00 -3.60000000E+00 -3.60000000E+00 -1.00000000E+00
 -1.00000000E+00 -1.00000000E+00 -1.00000000E+00 -1.00000000E+00 -1.00000000E+00
 -1.00000000E+00 -1.42400000E+01
Nuclear ZNuc                               R   N=          12
  6.00000000E+00  6.00000000E+00  6.00000000E+00  6.00000000E+00  1.00000000E+00
  1.00000000E+00  1.00000000E+00  1.00000000E+00  1.00000000E+00  1.00000000E+00
  1.00000000E+00  1.70000000E+01
Nuclear QMom                               R   N=          12
  0.00000000E+00  0.00000000E+00  0.00000000E+00  0.00000000E+00  0.00000000E+00
  0.00000000E+00  0.00000000E+00  0.00000000E+00  0.00000000E+00  0.00000000E+00
  0.00000000E+00 -8.16500000E+00
Nuclear GFac                               R   N=          12
  0.00000000E+00  0.00000000E+00  0.00000000E+00  0.00000000E+00  2.79284600E+00
  2.79284600E+00  2.79284600E+00  2.79284600E+00  2.79284600E+00  2.79284600E+00
  2.79284600E+00  8.21874000E-01
MicOpt                                     I   N=          12
          -1          -1          -1          -1          -1          -1
          -1          -1          -1          -1          -1          -1
Number of residues                         I                0
Number of secondary structures             I                0
SymInf integers                            I   N=          26
           1           1           1           1           1           0
           0           0           0           0           0           0
           0           0           0           0           0           0
           0           0           0           0           0           0
           0           0
RotTr to input orientation                 R   N=          12
  9.99990059E-01  4.45892493E-03  0.00000000E+00 -4.45892493E-03  9.99990059E-01
  0.00000000E+00  0.00000000E+00  0.00000000E+00  1.00000000E+00  1.31686471E-03
 -3.41977597E-03 -1.95524451E-04
Number of contracted shells                I               72
Number of primitive shells                 I              126
Pure/Cartesian d shells                    I                0
Pure/Cartesian f shells                    I                0
Highest angular momentum                   I                2
Largest degree of contraction              I                6
Shell types                                I   N=          72
           0          -1          -1          -1          -1          -2
           0          -1          -1          -1          -1          -2
           0          -1          -1          -1          -1          -2
           0          -1          -1          -1          -1          -2
           0           0           0           0           1           0
           0           0           0           1           0           0
           0           0           1           0           0           0
           0           1           0           0           0           0
           1           0           0           0           0           1
           0           0           0           0           1           0
           0           0           0           0           0          -1
           1           1           1           1           1          -2
Number of primitives per shell             I   N=          72
           6           3           1           1           1           1
           6           3           1           1           1           1
           6           3           1           1           1           1
           6           3           1           1           1           1
           3           1           1           1           1           3
           1           1           1           1           3           1
           1           1           1           3           1           1
           1           1           3           1           1           1
           1           3           1           1           1           1
           3           1           1           1           1           6
           3           1           1           1           1           1
           5           2           1           1           1           1
Shell to atom map                          I   N=          72
           1           1           1           1           1           1
           2           2           2           2           2           2
           3           3           3           3           3           3
           4           4           4           4           4           4
           5           5           5           5           5           6
           6           6           6           6           7           7
           7           7           7           8           8           8
           8           8           9           9           9           9
           9          10          10          10          10          10
          11          11          11          11          11          12
          12          12          12          12          12          12
          12          12          12          12          12          12
Primitive exponents                        R   N=         126
  4.56324000E+03  6.82024000E+02  1.54973000E+02  4.44553000E+01  1.30290000E+01
  1.82773000E+00  2.09642000E+01  4.80331000E+00  1.45933000E+00  4.83456000E-01
  1.45585000E-01  4.38000000E-02  6.26000000E-01  4.56324000E+03  6.82024000E+02
  1.54973000E+02  4.44553000E+01  1.30290000E+01  1.82773000E+00  2.09642000E+01
  4.80331000E+00  1.45933000E+00  4.83456000E-01  1.45585000E-01  4.38000000E-02
  6.26000000E-01  4.56324000E+03  6.82024000E+02  1.54973000E+02  4.44553000E+01
  1.30290000E+01  1.82773000E+00  2.09642000E+01  4.80331000E+00  1.45933000E+00
  4.83456000E-01  1.45585000E-01  4.38000000E-02  6.26000000E-01  4.56324000E+03
  6.82024000E+02  1.54973000E+02  4.44553000E+01  1.30290000E+01  1.82773000E+00
  2.09642000E+01  4.80331000E+00  1.45933000E+00  4.83456000E-01  1.45585000E-01
  4.38000000E-02  6.26000000E-01  3.38650000E+01  5.09479000E+00  1.15879000E+00
  3.25840000E-01  1.02741000E-01  3.60000000E-02  7.50000000E-01  3.38650000E+01
  5.09479000E+00  1.15879000E+00  3.25840000E-01  1.02741000E-01  3.60000000E-02
  7.50000000E-01  3.38650000E+01  5.09479000E+00  1.15879000E+00  3.25840000E-01
  1.02741000E-01  3.60000000E-02  7.50000000E-01  3.38650000E+01  5.09479000E+00
  1.15879000E+00  3.25840000E-01  1.02741000E-01  3.60000000E-02  7.50000000E-01
  3.38650000E+01  5.09479000E+00  1.15879000E+00  3.25840000E-01  1.02741000E-01
  3.60000000E-02  7.50000000E-01  3.38650000E+01  5.09479000E+00  1.15879000E+00
  3.25840000E-01  1.02741000E-01  3.60000000E-02  7.50000000E-01  3.38650000E+01
  5.09479000E+00  1.15879000E+00  3.25840000E-01  1.02741000E-01  3.60000000E-02
  7.50000000E-01  1.05819000E+05  1.58720000E+04  3.61965000E+03  1.03080000E+03
  3.39908000E+02  1.24538000E+02  1.24538000E+02  4.95135000E+01  2.08056000E+01
  6.58346000E+00  2.56468000E+00  5.59763000E-01  1.83273000E-01  4.83000000E-02
  5.89776000E+02  1.39849000E+02  4.51413000E+01  1.68733000E+01  2.77152000E+00
  6.74110000E+00  2.77152000E+00  1.02387000E+00  3.81368000E-01  1.09437000E-01
  7.50000000E-01
Contraction coefficients                   R   N=         126
  1.96665025E-03  1.52306019E-02  7.61269097E-02  2.60801033E-01  6.16462078E-01
  2.21006028E-01  1.14660081E-01  9.19999648E-01 -3.03068213E-03  1.00000000E+00
  1.00000000E+00  1.00000000E+00  1.00000000E+00  1.96665025E-03  1.52306019E-02
  7.61269097E-02  2.60801033E-01  6.16462078E-01  2.21006028E-01  1.14660081E-01
  9.19999648E-01 -3.03068213E-03  1.00000000E+00  1.00000000E+00  1.00000000E+00
  1.00000000E+00  1.96665025E-03  1.52306019E-02  7.61269097E-02  2.60801033E-01
  6.16462078E-01  2.21006028E-01  1.14660081E-01  9.19999648E-01 -3.03068213E-03
  1.00000000E+00  1.00000000E+00  1.00000000E+00  1.00000000E+00  1.96665025E-03
  1.52306019E-02  7.61269097E-02  2.60801033E-01  6.16462078E-01  2.21006028E-01
  1.14660081E-01  9.19999648E-01 -3.03068213E-03  1.00000000E+00  1.00000000E+00
  1.00000000E+00  1.00000000E+00  2.54938145E-02  1.90373109E-01  8.52161486E-01
  1.00000000E+00  1.00000000E+00  1.00000000E+00  1.00000000E+00  2.54938145E-02
  1.90373109E-01  8.52161486E-01  1.00000000E+00  1.00000000E+00  1.00000000E+00
  1.00000000E+00  2.54938145E-02  1.90373109E-01  8.52161486E-01  1.00000000E+00
  1.00000000E+00  1.00000000E+00  1.00000000E+00  2.54938145E-02  1.90373109E-01
  8.52161486E-01  1.00000000E+00  1.00000000E+00  1.00000000E+00  1.00000000E+00
  2.54938145E-02  1.90373109E-01  8.52161486E-01  1.00000000E+00  1.00000000E+00
  1.00000000E+00  1.00000000E+00  2.54938145E-02  1.90373109E-01  8.52161486E-01
  1.00000000E+00  1.00000000E+00  1.00000000E+00  1.00000000E+00  2.54938145E-02
  1.90373109E-01  8.52161486E-01  1.00000000E+00  1.00000000E+00  1.00000000E+00
  1.00000000E+00  7.38000247E-04  5.71800191E-03  2.94950099E-02  1.17286039E-01
  3.62949121E-01  5.84149195E-01  1.34176973E-01  6.24249876E-01  2.91755942E-01
  1.00000000E+00  1.00000000E+00  1.00000000E+00  1.00000000E+00  1.00000000E+00
  3.66556935E-03  2.83679194E-02  1.24756603E-01  3.39654631E-01  7.47585963E-01
 -1.57224381E+00  9.92388882E-01  1.00000000E+00  1.00000000E+00  1.00000000E+00
  1.00000000E+00
P(S=P) Contraction coefficients            R   N=         126
  0.00000000E+00  0.00000000E+00  0.00000000E+00  0.00000000E+00  0.00000000E+00
  0.00000000E+00  4.02486927E-02  2.37593957E-01  8.15853851E-01  1.00000000E+00
  1.00000000E+00  1.00000000E+00  0.00000000E+00  0.00000000E+00  0.00000000E+00
  0.00000000E+00  0.00000000E+00  0.00000000E+00  0.00000000E+00  4.02486927E-02
  2.37593957E-01  8.15853851E-01  1.00000000E+00  1.00000000E+00  1.00000000E+00
  0.00000000E+00  0.00000000E+00  0.00000000E+00  0.00000000E+00  0.00000000E+00
  0.00000000E+00  0.00000000E+00  4.02486927E-02  2.37593957E-01  8.15853851E-01
  1.00000000E+00  1.00000000E+00  1.00000000E+00  0.00000000E+00  0.00000000E+00
  0.00000000E+00  0.00000000E+00  0.00000000E+00  0.00000000E+00  0.00000000E+00
  4.02486927E-02  2.37593957E-01  8.15853851E-01  1.00000000E+00  1.00000000E+00
  1.00000000E+00  0.00000000E+00  0.00000000E+00  0.00000000E+00  0.00000000E+00
  0.00000000E+00  0.00000000E+00  0.00000000E+00  0.00000000E+00  0.00000000E+00
  0.00000000E+00  0.00000000E+00  0.00000000E+00  0.00000000E+00  0.00000000E+00
  0.00000000E+00  0.00000000E+00  0.00000000E+00  0.00000000E+00  0.00000000E+00
  0.00000000E+00  0.00000000E+00  0.00000000E+00  0.00000000E+00  0.00000000E+00
  0.00000000E+00  0.00000000E+00  0.00000000E+00  0.00000000E+00  0.00000000E+00
  0.00000000E+00  0.00000000E+00  0.00000000E+00  0.00000000E+00  0.00000000E+00
  0.00000000E+00  0.00000000E+00  0.00000000E+00  0.00000000E+00  0.00000000E+00
  0.00000000E+00  0.00000000E+00  0.00000000E+00  0.00000000E+00  0.00000000E+00
  0.00000000E+00  0.00000000E+00  0.00000000E+00  0.00000000E+00  0.00000000E+00
  0.00000000E+00  0.00000000E+00  0.00000000E+00  0.00000000E+00  0.00000000E+00
  0.00000000E+00  0.00000000E+00  0.00000000E+00  0.00000000E+00  0.00000000E+00
  0.00000000E+00  0.00000000E+00  0.00000000E+00  0.00000000E+00  1.00000000E+00
  0.00000000E+00  0.00000000E+00  0.00000000E+00  0.00000000E+00  0.00000000E+00
  0.00000000E+00  0.00000000E+00  0.00000000E+00  0.00000000E+00  0.00000000E+00
  0.00000000E+00
Coordinates of each shell                  R   N=         216
  8.99580172E-01  3.31175394E+00  7.72584428E-02  8.99580172E-01  3.31175394E+00
  7.72584428E-02  8.99580172E-01  3.31175394E+00  7.72584428E-02  8.99580172E-01
  3.31175394E+00  7.72584428E-02  8.99580172E-01  3.31175394E+00  7.72584428E-02
  8.99580172E-01  3.31175394E+00  7.72584428E-02  1.25222601E-02  6.67269574E-01
 -6.14217199E-01  1.25222601E-02  6.67269574E-01 -6.14217199E-01  1.25222601E-02
  6.67269574E-01 -6.14217199E-01  1.25222601E-02  6.67269574E-01 -6.14217199E-01
  1.25222601E-02  6.67269574E-01 -6.14217199E-01  1.25222601E-02  6.67269574E-01
 -6.14217199E-01 -2.27734595E+00 -1.80057777E-01  8.06590798E-01 -2.27734595E+00
 -1.80057777E-01  8.06590798E-01 -2.27734595E+00 -1.80057777E-01  8.06590798E-01
 -2.27734595E+00 -1.80057777E-01  8.06590798E-01 -2.27734595E+00 -1.80057777E-01
  8.06590798E-01 -2.27734595E+00 -1.80057777E-01  8.06590798E-01 -4.42793413E+00
 -8.79136303E-01 -2.93710898E-01 -4.42793413E+00 -8.79136303E-01 -2.93710898E-01
 -4.42793413E+00 -8.79136303E-01 -2.93710898E-01 -4.42793413E+00 -8.79136303E-01
 -2.93710898E-01 -4.42793413E+00 -8.79136303E-01 -2.93710898E-01 -4.42793413E+00
 -8.79136303E-01 -2.93710898E-01 -4.52467922E+00 -1.19508412E+00 -2.33169223E+00
 -4.52467922E+00 -1.19508412E+00 -2.33169223E+00 -4.52467922E+00 -1.19508412E+00
 -2.33169223E+00 -4.52467922E+00 -1.19508412E+00 -2.33169223E+00 -4.52467922E+00
 -1.19508412E+00 -2.33169223E+00  2.60682723E+00  3.80648983E+00 -9.68277894E-01
  2.60682723E+00  3.80648983E+00 -9.68277894E-01  2.60682723E+00  3.80648983E+00
 -9.68277894E-01  2.60682723E+00  3.80648983E+00 -9.68277894E-01  2.60682723E+00
  3.80648983E+00 -9.68277894E-01 -6.00674159E+00 -1.61121664E+00  8.03962586E-01
 -6.00674159E+00 -1.61121664E+00  8.03962586E-01 -6.00674159E+00 -1.61121664E+00
  8.03962586E-01 -6.00674159E+00 -1.61121664E+00  8.03962586E-01 -6.00674159E+00
 -1.61121664E+00  8.03962586E-01 -2.12025639E+00 -1.21683505E-01  2.85475405E+00
 -2.12025639E+00 -1.21683505E-01  2.85475405E+00 -2.12025639E+00 -1.21683505E-01
  2.85475405E+00 -2.12025639E+00 -1.21683505E-01  2.85475405E+00 -2.12025639E+00
 -1.21683505E-01  2.85475405E+00 -2.91764322E-01  5.09560899E-01 -2.64457611E+00
 -2.91764322E-01  5.09560899E-01 -2.64457611E+00 -2.91764322E-01  5.09560899E-01
 -2.64457611E+00 -2.91764322E-01  5.09560899E-01 -2.64457611E+00 -2.91764322E-01
  5.09560899E-01 -2.64457611E+00  1.29318669E+00  3.47032986E+00  2.09697889E+00
  1.29318669E+00  3.47032986E+00  2.09697889E+00  1.29318669E+00  3.47032986E+00
  2.09697889E+00  1.29318669E+00  3.47032986E+00  2.09697889E+00  1.29318669E+00
  3.47032986E+00  2.09697889E+00 -5.86918417E-01  4.66443149E+00 -4.10365260E-01
 -5.86918417E-01  4.66443149E+00 -4.10365260E-01 -5.86918417E-01  4.66443149E+00
 -4.10365260E-01 -5.86918417E-01  4.66443149E+00 -4.10365260E-01 -5.86918417E-01
  4.66443149E+00 -4.10365260E-01  2.61114188E+00 -1.59069438E+00  4.37464175E-02
  2.61114188E+00 -1.59069438E+00  4.37464175E-02  2.61114188E+00 -1.59069438E+00
  4.37464175E-02  2.61114188E+00 -1.59069438E+00  4.37464175E-02  2.61114188E+00
 -1.59069438E+00  4.37464175E-02  2.61114188E+00 -1.59069438E+00  4.37464175E-02
  2.61114188E+00 -1.59069438E+00  4.37464175E-02  2.61114188E+00 -1.59069438E+00
  4.37464175E-02  2.61114188E+00 -1.59069438E+00  4.37464175E-02  2.61114188E+00
 -1.59069438E+00  4.37464175E-02  2.61114188E+00 -1.59069438E+00  4.37464175E-02
  2.61114188E+00 -1.59069438E+00  4.37464175E-02  2.61114188E+00 -1.59069438E+00
  4.37464175E-02
Constraint Structure                       R   N=          36
  8.99580172E-01  3.31175394E+00  7.72584428E-02  1.25222601E-02  6.67269574E-01
 -6.14217199E-01 -2.27734595E+00 -1.80057777E-01  8.06590798E-01 -4.42793413E+00
 -8.79136303E-01 -2.93710898E-01 -4.52467922E+00 -1.19508412E+00 -2.33169223E+00
  2.60682723E+00  3.80648983E+00 -9.68277894E-01 -6.00674159E+00 -1.61121664E+00
  8.03962586E-01 -2.12025639E+00 -1.21683505E-01  2.85475405E+00 -2.91764322E-01
  5.09560899E-01 -2.64457611E+00  1.29318669E+00  3.47032986E+00  2.09697889E+00
 -5.86918417E-01  4.66443149E+00 -4.10365260E-01  2.61114188E+00 -1.59069438E+00
  4.37464175E-02
Num ILSW                                   I              100
ILSW                                       I   N=         100
           0           0           0           0           2           0
           0           0           0           0         402          -1
           5           0           0           0           0           0
           0           0           0           0           0           0
           1           0           0           0           0           0
           0           0      100000           0          -1           0
           0           0           0           0           0           0
           0           0           0           1           0           0
           0           0           1           0           0           0
           0           0           4          41           0           0
           0           0           5           0           0           0
           0           0           0           0           0           0
           0           0           0           0           0           0
           0           0           0           0           0           0
           0           0           0           0           0           0
           0           0           0           0           0           0
           0           0           0           0
Num RLSW                                   I               41
RLSW                                       R   N=          41
  8.00000000E-01  7.20000000E-01  1.00000000E+00  8.10000000E-01  2.00000000E-01
  0.00000000E+00  0.00000000E+00  1.00000000E+00  0.00000000E+00  0.00000000E+00
  0.00000000E+00  0.00000000E+00  1.00000000E+00  0.00000000E+00  0.00000000E+00
  0.00000000E+00  0.00000000E+00  1.00000000E+00  0.00000000E+00  0.00000000E+00
  0.00000000E+00  0.00000000E+00  1.00000000E+00  0.00000000E+00  0.00000000E+00
  0.00000000E+00  0.00000000E+00  1.00000000E+00  0.00000000E+00  0.00000000E+00
  0.00000000E+00  0.00000000E+00  0.00000000E+00  0.00000000E+00  0.00000000E+00
  0.00000000E+00  0.00000000E+00  0.00000000E+00  1.00000000E+00  1.00000000E+00
  0.00000000E+00
MxBond                                     I                4
NBond                                      I   N=          12
           4           4           3           3           1           1
           1           1           1           1           1           1
IBond                                      I   N=          48
           2           6          10          11           1           3
           9          12           2           4           8           0
           3           5           7           0           4           0
           0           0           1           0           0           0
           4           0           0           0           3           0
           0           0           2           0           0           0
           1           0           0           0           1           0
           0           0           2           0           0           0
RBond                                      R   N=          48
  1.00000000E+00  1.00000000E+00  1.00000000E+00  1.00000000E+00  1.00000000E+00
  1.00000000E+00  1.00000000E+00  1.00000000E+00  1.00000000E+00  2.00000000E+00
  1.00000000E+00  0.00000000E+00  2.00000000E+00  1.00000000E+00  1.00000000E+00
  0.00000000E+00  1.00000000E+00  0.00000000E+00  0.00000000E+00  0.00000000E+00
  1.00000000E+00  0.00000000E+00  0.00000000E+00  0.00000000E+00  1.00000000E+00
  0.00000000E+00  0.00000000E+00  0.00000000E+00  1.00000000E+00  0.00000000E+00
  0.00000000E+00  0.00000000E+00  1.00000000E+00  0.00000000E+00  0.00000000E+00
  0.00000000E+00  1.00000000E+00  0.00000000E+00  0.00000000E+00  0.00000000E+00
  1.00000000E+00  0.00000000E+00  0.00000000E+00  0.00000000E+00  1.00000000E+00
  0.00000000E+00  0.00000000E+00  0.00000000E+00
Virial Ratio                               R      2.003077840841097E+00
SCF Energy                                 R     -6.168942527266207E+02
Total Energy                               R     -6.168942527266207E+02
RMS Density                                R      5.488698292794997E-12
Nuclear derivative order                   I                0
External E-field                           R   N=          35
  0.00000000E+00  0.00000000E+00  0.00000000E+00  0.00000000E+00  0.00000000E+00
  0.00000000E+00  0.00000000E+00  0.00000000E+00  0.00000000E+00  0.00000000E+00
  0.00000000E+00  0.00000000E+00  0.00000000E+00  0.00000000E+00  0.00000000E+00
  0.00000000E+00  0.00000000E+00  0.00000000E+00  0.00000000E+00  0.00000000E+00
  0.00000000E+00  0.00000000E+00  0.00000000E+00  0.00000000E+00  0.00000000E+00
  0.00000000E+00  0.00000000E+00  0.00000000E+00  0.00000000E+00  0.00000000E+00
  0.00000000E+00  0.00000000E+00  0.00000000E+00  0.00000000E+00  0.00000000E+00
IOpCl                                      I                0
IROHF                                      I                0
Alpha Orbital Energies                     R   N=         167
 -1.01534688E+02 -1.02478797E+01 -1.01948674E+01 -1.01845905E+01 -1.01812976E+01
 -9.44908961E+00 -7.21342689E+00 -7.20401258E+00 -7.20384733E+00 -8.67911241E-01
 -7.87116097E-01 -7.42766006E-01 -6.39620756E-01 -5.77697001E-01 -4.85393923E-01
 -4.75285235E-01 -4.44838073E-01 -4.17653342E-01 -4.02519072E-01 -3.75397283E-01
 -3.65798149E-01 -3.06472272E-01 -2.99057960E-01 -2.81015197E-01 -3.39018696E-02
 -7.35481951E-03  6.34170152E-03  7.35287912E-03  2.06526804E-02  2.86054075E-02
  3.90385094E-02  4.12154744E-02  6.41022096E-02  6.52421407E-02  7.19911215E-02
  8.31191232E-02  8.67166026E-02  9.74395718E-02  1.11663705E-01  1.16413477E-01
  1.17957700E-01  1.21681815E-01  1.29207388E-01  1.30470497E-01  1.35290198E-01
  1.41278606E-01  1.50692186E-01  1.56996016E-01  1.60248766E-01  1.64581332E-01
  1.71511357E-01  1.89791499E-01  1.91155411E-01  2.14682742E-01  2.18635838E-01
  2.25715805E-01  2.39971138E-01  2.62593842E-01  2.67784570E-01  2.91747245E-01
  3.37546898E-01  3.46388807E-01  3.90897053E-01  4.24055774E-01  4.32240731E-01
  4.47982481E-01  4.55285683E-01  4.79914858E-01  4.85321899E-01  4.95705416E-01
  5.22228752E-01  5.30804395E-01  5.67052803E-01  5.86101026E-01  6.00515547E-01
  6.23907183E-01  6.35957315E-01  6.41147580E-01  6.57147868E-01  6.61919546E-01
  6.78498257E-01  7.04883879E-01  7.26453762E-01  7.37190451E-01  7.55024578E-01
  8.14939923E-01  8.28540057E-01  8.65675028E-01  8.90804982E-01  9.02659046E-01
  9.34873984E-01  9.62107339E-01  1.00525347E+00  1.03961637E+00  1.07964005E+00
  1.09668287E+00  1.13067985E+00  1.17148371E+00  1.20267783E+00  1.29320127E+00
  1.39534802E+00  1.42898615E+00  1.44770680E+00  1.46487419E+00  1.50426464E+00
  1.54131717E+00  1.56286325E+00  1.58777604E+00  1.60122737E+00  1.62178034E+00
  1.66941700E+00  1.67706786E+00  1.70248387E+00  1.73101891E+00  1.77058106E+00
  1.78445366E+00  1.87272900E+00  1.88734594E+00  1.94020316E+00  1.97252443E+00
  2.00810870E+00  2.07387292E+00  2.09699633E+00  2.17126661E+00  2.20395685E+00
  2.21991696E+00  2.24965736E+00  2.29879944E+00  2.30867617E+00  2.35726125E+00
  2.37696844E+00  2.45583678E+00  2.45707563E+00  2.49539259E+00  2.52224996E+00
  2.55872737E+00  2.56960951E+00  2.58579924E+00  2.60686177E+00  2.63541272E+00
  2.72350534E+00  2.74172101E+00  2.75212307E+00  2.77293509E+00  2.84095100E+00
  2.86930109E+00  2.93716897E+00  3.07651006E+00  3.08104896E+00  3.18214036E+00
  3.40091256E+00  3.50817188E+00  3.70723099E+00  3.79409951E+00  3.79753539E+00
  3.94043185E+00  4.11594488E+00  4.27827638E+00  9.75589102E+00  2.37161647E+01
  2.37900752E+01  2.39456365E+01  2.42508214E+01  2.59282834E+01  2.59681463E+01
  2.64464921E+01  2.15745825E+02
Alpha MO coefficients                      R   N=       27889
  2.06979057E-07 -4.65427091E-07 -2.79810575E-06 -2.01836397E-06 -1.29034417E-06
  1.30586153E-06  2.04692060E-05  1.47157829E-05  9.30109993E-06  5.71213806E-06
  3.79430216E-05  3.26352751E-05  2.26007769E-05 -1.76780035E-03 -1.39805722E-04
  5.21276884E-04  5.51588091E-05  7.45392699E-06 -3.64927783E-06 -4.57380160E-06
  1.30689448E-05  3.21853534E-07  1.53060480E-06 -3.21711907E-06  1.20908667E-05
 -1.18612146E-05  5.33141634E-06 -1.52233961E-05 -1.40450101E-05  1.90317371E-05
 -1.96826985E-05  1.81848772E-04  1.25082071E-04 -1.18262134E-04 -8.02139004E-06
  3.74748457E-03 -4.96731981E-04  5.22482392E-04  8.31032831E-04  9.47909743E-06
 -1.15069591E-06  3.37944977E-06 -2.57661185E-06  7.64664374E-06 -5.16149345E-07
  1.51321425E-06  3.90122792E-06 -2.55074853E-06 -4.13850948E-06 -6.91293640E-06
 -2.34720684E-05  9.93953910E-06  2.51638782E-05  1.00995861E-05  1.46878554E-05
 -1.14847384E-05 -4.80845596E-05 -1.07292444E-03 -1.21838162E-03 -3.86173185E-04
 -1.35505517E-04  6.46022890E-06  5.80944847E-06 -5.96036932E-06  7.79176617E-07
 -4.48993763E-06  3.33255145E-07 -9.88338406E-07 -1.99534869E-06  6.31028505E-07
  9.52935350E-07  9.77054184E-06  9.47265325E-06 -1.90865160E-06 -7.78340104E-07
 -4.80856673E-05 -7.72470229E-05 -1.33039517E-05  5.73361210E-05 -1.71936620E-03
 -3.76556794E-04 -1.86940949E-04 -1.01699554E-04 -4.07182491E-06 -8.77155333E-07
 -5.01708762E-06 -2.29057244E-06 -1.47936786E-06 -2.39608280E-06  2.94368354E-05
  6.61590051E-05  6.22470069E-05  4.89971543E-06  8.91340792E-07  5.31743649E-06
  1.24614873E-05 -8.49250550E-05  8.60824206E-05  2.35145762E-04  8.19737318E-06
  1.31862405E-05 -1.12525811E-05  1.05031120E-06 -1.33209052E-05 -5.85178396E-05
 -1.64117934E-04  1.74395027E-07 -1.43261901E-06  3.37554497E-07  6.49461363E-06
 -4.00245726E-05  6.34777184E-05  1.71485430E-04 -1.10711937E-05  1.92002966E-06
  1.39832942E-05 -9.06683176E-07 -6.32573557E-05 -1.18920213E-04  1.31566271E-04
 -6.85232749E-06  1.95996255E-06 -1.65191426E-05  1.01102562E-05 -6.24261566E-05
 -1.78458111E-05  6.71974564E-05 -4.62543830E-06  1.23468221E-05  1.51071094E-05
 -7.91878317E-06  4.04823265E-05 -1.39077265E-04 -3.06203121E-04  7.37289875E-07
 -5.34337248E-06 -4.27228634E-07  4.11609672E-01  6.54076178E-01  1.50039425E-02