(R)-3-chloro-1-butene tau=120                                           
SP        RB3LYP                                                      6-311++G(d,p)       
Number of atoms                            I               12
Info1-9                                    I   N=           9
          26          26           0           0           0         110
           1          18        -502
Full Title                                 C   N=           3
(R)-3-chloro-1-butene tau=120       
Route                                      C   N=           7
#P B3LYP/6-311++G** scf(conver=11) int=ultrafine polar=optro
t cphf(rdfreq,conver=11)
Charge                                     I                0
Multiplicity                               I                1
Number of electrons                        I               48
Number of alpha electrons                  I               24
Number of beta electrons                   I               24
Number of basis functions                  I              167
Number of independent functions            I              167
Number of point charges in /Mol/           I                0
Number of translation vectors              I                0
Atomic numbers                             I   N=          12
           6           6           6           6           1           1
           1           1           1           1           1          17
Nuclear charges                            R   N=          12
  6.00000000E+00  6.00000000E+00  6.00000000E+00  6.00000000E+00  1.00000000E+00
  1.00000000E+00  1.00000000E+00  1.00000000E+00  1.00000000E+00  1.00000000E+00
  1.00000000E+00  1.70000000E+01
Current cartesian coordinates              R   N=          36
  8.57769813E-01  3.33712355E+00  7.59180157E-02  1.07594974E-02  6.28483449E-01
 -6.13329139E-01 -2.28275858E+00 -1.60854981E-01  7.95883722E-01 -4.41228716E+00
 -9.48324902E-01 -2.78643849E-01 -4.53120767E+00 -1.05650600E+00 -2.32558289E+00
  2.58555836E+00  3.70917435E+00 -9.98731114E-01 -6.07930813E+00 -1.49159871E+00
  7.79488106E-01 -2.04513394E+00 -1.62370365E-01  2.84042176E+00 -2.43795542E-01
  4.41906436E-01 -2.64805299E+00  1.33691306E+00  3.49552005E+00  2.07967545E+00
 -5.46131164E-01  4.77645830E+00 -4.13881437E-01  2.61660021E+00 -1.57947922E+00
  4.75112130E-02
Number of symbols in /Mol/                 I                0
Force Field                                I                0
Atom Types                                 C   N=          12
                                                            
                                                            
                        
Int Atom Types                             I   N=          12
           0           0           0           0           0           0
           0           0           0           0           0           0
MM charges                                 R   N=          12
  0.00000000E+00  0.00000000E+00  0.00000000E+00  0.00000000E+00  0.00000000E+00
  0.00000000E+00  0.00000000E+00  0.00000000E+00  0.00000000E+00  0.00000000E+00
  0.00000000E+00  0.00000000E+00
Integer atomic weights                     I   N=          12
          12          12          12          12           1           1
           1           1           1           1           1          35
Real atomic weights                        R   N=          12
  1.20000000E+01  1.20000000E+01  1.20000000E+01  1.20000000E+01  1.00782504E+00
  1.00782504E+00  1.00782504E+00  1.00782504E+00  1.00782504E+00  1.00782504E+00
  1.00782504E+00  3.49688527E+01
Atom fragment info                         I   N=          12
           0           0           0           0           0           0
           0           0           0           0           0           0
Atom residue num                           I   N=          12
           0           0           0           0           0           0
           0           0           0           0           0           0
Nuclear spins                              I   N=          12
           0           0           0           0           1           1
           1           1           1           1           1           3
Nuclear ZEff                               R   N=          12
 -3.60000000E+00 -3.60000000E+00 -3.60000000E+00 -3.60000000E+00 -1.00000000E+00
 -1.00000000E+00 -1.00000000E+00 -1.00000000E+00 -1.00000000E+00 -1.00000000E+00
 -1.00000000E+00 -1.42400000E+01
Nuclear ZNuc                               R   N=          12
  6.00000000E+00  6.00000000E+00  6.00000000E+00  6.00000000E+00  1.00000000E+00
  1.00000000E+00  1.00000000E+00  1.00000000E+00  1.00000000E+00  1.00000000E+00
  1.00000000E+00  1.70000000E+01
Nuclear QMom                               R   N=          12
  0.00000000E+00  0.00000000E+00  0.00000000E+00  0.00000000E+00  0.00000000E+00
  0.00000000E+00  0.00000000E+00  0.00000000E+00  0.00000000E+00  0.00000000E+00
  0.00000000E+00 -8.16500000E+00
Nuclear GFac                               R   N=          12
  0.00000000E+00  0.00000000E+00  0.00000000E+00  0.00000000E+00  2.79284600E+00
  2.79284600E+00  2.79284600E+00  2.79284600E+00  2.79284600E+00  2.79284600E+00
  2.79284600E+00  8.21874000E-01
MicOpt                                     I   N=          12
          -1          -1          -1          -1          -1          -1
          -1          -1          -1          -1          -1          -1
Number of residues                         I                0
Number of secondary structures             I                0
SymInf integers                            I   N=          26
           1           1           1           1           1           0
           0           0           0           0           0           0
           0           0           0           0           0           0
           0           0           0           0           0           0
           0           0
RotTr to input orientation                 R   N=          12
  9.99999669E-01 -7.17753844E-04  3.82337820E-04  7.16274922E-04  9.99992316E-01
  3.85429756E-03 -3.85101319E-04 -3.85402243E-03  9.99992499E-01  3.07504661E-03
 -7.23605663E-04 -7.72555475E-04
Number of contracted shells                I               72
Number of primitive shells                 I              126
Pure/Cartesian d shells                    I                0
Pure/Cartesian f shells                    I                0
Highest angular momentum                   I                2
Largest degree of contraction              I                6
Shell types                                I   N=          72
           0          -1          -1          -1          -1          -2
           0          -1          -1          -1          -1          -2
           0          -1          -1          -1          -1          -2
           0          -1          -1          -1          -1          -2
           0           0           0           0           1           0
           0           0           0           1           0           0
           0           0           1           0           0           0
           0           1           0           0           0           0
           1           0           0           0           0           1
           0           0           0           0           1           0
           0           0           0           0           0          -1
           1           1           1           1           1          -2
Number of primitives per shell             I   N=          72
           6           3           1           1           1           1
           6           3           1           1           1           1
           6           3           1           1           1           1
           6           3           1           1           1           1
           3           1           1           1           1           3
           1           1           1           1           3           1
           1           1           1           3           1           1
           1           1           3           1           1           1
           1           3           1           1           1           1
           3           1           1           1           1           6
           3           1           1           1           1           1
           5           2           1           1           1           1
Shell to atom map                          I   N=          72
           1           1           1           1           1           1
           2           2           2           2           2           2
           3           3           3           3           3           3
           4           4           4           4           4           4
           5           5           5           5           5           6
           6           6           6           6           7           7
           7           7           7           8           8           8
           8           8           9           9           9           9
           9          10          10          10          10          10
          11          11          11          11          11          12
          12          12          12          12          12          12
          12          12          12          12          12          12
Primitive exponents                        R   N=         126
  4.56324000E+03  6.82024000E+02  1.54973000E+02  4.44553000E+01  1.30290000E+01
  1.82773000E+00  2.09642000E+01  4.80331000E+00  1.45933000E+00  4.83456000E-01
  1.45585000E-01  4.38000000E-02  6.26000000E-01  4.56324000E+03  6.82024000E+02
  1.54973000E+02  4.44553000E+01  1.30290000E+01  1.82773000E+00  2.09642000E+01
  4.80331000E+00  1.45933000E+00  4.83456000E-01  1.45585000E-01  4.38000000E-02
  6.26000000E-01  4.56324000E+03  6.82024000E+02  1.54973000E+02  4.44553000E+01
  1.30290000E+01  1.82773000E+00  2.09642000E+01  4.80331000E+00  1.45933000E+00
  4.83456000E-01  1.45585000E-01  4.38000000E-02  6.26000000E-01  4.56324000E+03
  6.82024000E+02  1.54973000E+02  4.44553000E+01  1.30290000E+01  1.82773000E+00
  2.09642000E+01  4.80331000E+00  1.45933000E+00  4.83456000E-01  1.45585000E-01
  4.38000000E-02  6.26000000E-01  3.38650000E+01  5.09479000E+00  1.15879000E+00
  3.25840000E-01  1.02741000E-01  3.60000000E-02  7.50000000E-01  3.38650000E+01
  5.09479000E+00  1.15879000E+00  3.25840000E-01  1.02741000E-01  3.60000000E-02
  7.50000000E-01  3.38650000E+01  5.09479000E+00  1.15879000E+00  3.25840000E-01
  1.02741000E-01  3.60000000E-02  7.50000000E-01  3.38650000E+01  5.09479000E+00
  1.15879000E+00  3.25840000E-01  1.02741000E-01  3.60000000E-02  7.50000000E-01
  3.38650000E+01  5.09479000E+00  1.15879000E+00  3.25840000E-01  1.02741000E-01
  3.60000000E-02  7.50000000E-01  3.38650000E+01  5.09479000E+00  1.15879000E+00
  3.25840000E-01  1.02741000E-01  3.60000000E-02  7.50000000E-01  3.38650000E+01
  5.09479000E+00  1.15879000E+00  3.25840000E-01  1.02741000E-01  3.60000000E-02
  7.50000000E-01  1.05819000E+05  1.58720000E+04  3.61965000E+03  1.03080000E+03
  3.39908000E+02  1.24538000E+02  1.24538000E+02  4.95135000E+01  2.08056000E+01
  6.58346000E+00  2.56468000E+00  5.59763000E-01  1.83273000E-01  4.83000000E-02
  5.89776000E+02  1.39849000E+02  4.51413000E+01  1.68733000E+01  2.77152000E+00
  6.74110000E+00  2.77152000E+00  1.02387000E+00  3.81368000E-01  1.09437000E-01
  7.50000000E-01
Contraction coefficients                   R   N=         126
  1.96665025E-03  1.52306019E-02  7.61269097E-02  2.60801033E-01  6.16462078E-01
  2.21006028E-01  1.14660081E-01  9.19999648E-01 -3.03068213E-03  1.00000000E+00
  1.00000000E+00  1.00000000E+00  1.00000000E+00  1.96665025E-03  1.52306019E-02
  7.61269097E-02  2.60801033E-01  6.16462078E-01  2.21006028E-01  1.14660081E-01
  9.19999648E-01 -3.03068213E-03  1.00000000E+00  1.00000000E+00  1.00000000E+00
  1.00000000E+00  1.96665025E-03  1.52306019E-02  7.61269097E-02  2.60801033E-01
  6.16462078E-01  2.21006028E-01  1.14660081E-01  9.19999648E-01 -3.03068213E-03
  1.00000000E+00  1.00000000E+00  1.00000000E+00  1.00000000E+00  1.96665025E-03
  1.52306019E-02  7.61269097E-02  2.60801033E-01  6.16462078E-01  2.21006028E-01
  1.14660081E-01  9.19999648E-01 -3.03068213E-03  1.00000000E+00  1.00000000E+00
  1.00000000E+00  1.00000000E+00  2.54938145E-02  1.90373109E-01  8.52161486E-01
  1.00000000E+00  1.00000000E+00  1.00000000E+00  1.00000000E+00  2.54938145E-02
  1.90373109E-01  8.52161486E-01  1.00000000E+00  1.00000000E+00  1.00000000E+00
  1.00000000E+00  2.54938145E-02  1.90373109E-01  8.52161486E-01  1.00000000E+00
  1.00000000E+00  1.00000000E+00  1.00000000E+00  2.54938145E-02  1.90373109E-01
  8.52161486E-01  1.00000000E+00  1.00000000E+00  1.00000000E+00  1.00000000E+00
  2.54938145E-02  1.90373109E-01  8.52161486E-01  1.00000000E+00  1.00000000E+00
  1.00000000E+00  1.00000000E+00  2.54938145E-02  1.90373109E-01  8.52161486E-01
  1.00000000E+00  1.00000000E+00  1.00000000E+00  1.00000000E+00  2.54938145E-02
  1.90373109E-01  8.52161486E-01  1.00000000E+00  1.00000000E+00  1.00000000E+00
  1.00000000E+00  7.38000247E-04  5.71800191E-03  2.94950099E-02  1.17286039E-01
  3.62949121E-01  5.84149195E-01  1.34176973E-01  6.24249876E-01  2.91755942E-01
  1.00000000E+00  1.00000000E+00  1.00000000E+00  1.00000000E+00  1.00000000E+00
  3.66556935E-03  2.83679194E-02  1.24756603E-01  3.39654631E-01  7.47585963E-01
 -1.57224381E+00  9.92388882E-01  1.00000000E+00  1.00000000E+00  1.00000000E+00
  1.00000000E+00
P(S=P) Contraction coefficients            R   N=         126
  0.00000000E+00  0.00000000E+00  0.00000000E+00  0.00000000E+00  0.00000000E+00
  0.00000000E+00  4.02486927E-02  2.37593957E-01  8.15853851E-01  1.00000000E+00
  1.00000000E+00  1.00000000E+00  0.00000000E+00  0.00000000E+00  0.00000000E+00
  0.00000000E+00  0.00000000E+00  0.00000000E+00  0.00000000E+00  4.02486927E-02
  2.37593957E-01  8.15853851E-01  1.00000000E+00  1.00000000E+00  1.00000000E+00
  0.00000000E+00  0.00000000E+00  0.00000000E+00  0.00000000E+00  0.00000000E+00
  0.00000000E+00  0.00000000E+00  4.02486927E-02  2.37593957E-01  8.15853851E-01
  1.00000000E+00  1.00000000E+00  1.00000000E+00  0.00000000E+00  0.00000000E+00
  0.00000000E+00  0.00000000E+00  0.00000000E+00  0.00000000E+00  0.00000000E+00
  4.02486927E-02  2.37593957E-01  8.15853851E-01  1.00000000E+00  1.00000000E+00
  1.00000000E+00  0.00000000E+00  0.00000000E+00  0.00000000E+00  0.00000000E+00
  0.00000000E+00  0.00000000E+00  0.00000000E+00  0.00000000E+00  0.00000000E+00
  0.00000000E+00  0.00000000E+00  0.00000000E+00  0.00000000E+00  0.00000000E+00
  0.00000000E+00  0.00000000E+00  0.00000000E+00  0.00000000E+00  0.00000000E+00
  0.00000000E+00  0.00000000E+00  0.00000000E+00  0.00000000E+00  0.00000000E+00
  0.00000000E+00  0.00000000E+00  0.00000000E+00  0.00000000E+00  0.00000000E+00
  0.00000000E+00  0.00000000E+00  0.00000000E+00  0.00000000E+00  0.00000000E+00
  0.00000000E+00  0.00000000E+00  0.00000000E+00  0.00000000E+00  0.00000000E+00
  0.00000000E+00  0.00000000E+00  0.00000000E+00  0.00000000E+00  0.00000000E+00
  0.00000000E+00  0.00000000E+00  0.00000000E+00  0.00000000E+00  0.00000000E+00
  0.00000000E+00  0.00000000E+00  0.00000000E+00  0.00000000E+00  0.00000000E+00
  0.00000000E+00  0.00000000E+00  0.00000000E+00  0.00000000E+00  0.00000000E+00
  0.00000000E+00  0.00000000E+00  0.00000000E+00  0.00000000E+00  1.00000000E+00
  0.00000000E+00  0.00000000E+00  0.00000000E+00  0.00000000E+00  0.00000000E+00
  0.00000000E+00  0.00000000E+00  0.00000000E+00  0.00000000E+00  0.00000000E+00
  0.00000000E+00
Coordinates of each shell                  R   N=         216
  8.57769813E-01  3.33712355E+00  7.59180157E-02  8.57769813E-01  3.33712355E+00
  7.59180157E-02  8.57769813E-01  3.33712355E+00  7.59180157E-02  8.57769813E-01
  3.33712355E+00  7.59180157E-02  8.57769813E-01  3.33712355E+00  7.59180157E-02
  8.57769813E-01  3.33712355E+00  7.59180157E-02  1.07594974E-02  6.28483449E-01
 -6.13329139E-01  1.07594974E-02  6.28483449E-01 -6.13329139E-01  1.07594974E-02
  6.28483449E-01 -6.13329139E-01  1.07594974E-02  6.28483449E-01 -6.13329139E-01
  1.07594974E-02  6.28483449E-01 -6.13329139E-01  1.07594974E-02  6.28483449E-01
 -6.13329139E-01 -2.28275858E+00 -1.60854981E-01  7.95883722E-01 -2.28275858E+00
 -1.60854981E-01  7.95883722E-01 -2.28275858E+00 -1.60854981E-01  7.95883722E-01
 -2.28275858E+00 -1.60854981E-01  7.95883722E-01 -2.28275858E+00 -1.60854981E-01
  7.95883722E-01 -2.28275858E+00 -1.60854981E-01  7.95883722E-01 -4.41228716E+00
 -9.48324902E-01 -2.78643849E-01 -4.41228716E+00 -9.48324902E-01 -2.78643849E-01
 -4.41228716E+00 -9.48324902E-01 -2.78643849E-01 -4.41228716E+00 -9.48324902E-01
 -2.78643849E-01 -4.41228716E+00 -9.48324902E-01 -2.78643849E-01 -4.41228716E+00
 -9.48324902E-01 -2.78643849E-01 -4.53120767E+00 -1.05650600E+00 -2.32558289E+00
 -4.53120767E+00 -1.05650600E+00 -2.32558289E+00 -4.53120767E+00 -1.05650600E+00
 -2.32558289E+00 -4.53120767E+00 -1.05650600E+00 -2.32558289E+00 -4.53120767E+00
 -1.05650600E+00 -2.32558289E+00  2.58555836E+00  3.70917435E+00 -9.98731114E-01
  2.58555836E+00  3.70917435E+00 -9.98731114E-01  2.58555836E+00  3.70917435E+00
 -9.98731114E-01  2.58555836E+00  3.70917435E+00 -9.98731114E-01  2.58555836E+00
  3.70917435E+00 -9.98731114E-01 -6.07930813E+00 -1.49159871E+00  7.79488106E-01
 -6.07930813E+00 -1.49159871E+00  7.79488106E-01 -6.07930813E+00 -1.49159871E+00
  7.79488106E-01 -6.07930813E+00 -1.49159871E+00  7.79488106E-01 -6.07930813E+00
 -1.49159871E+00  7.79488106E-01 -2.04513394E+00 -1.62370365E-01  2.84042176E+00
 -2.04513394E+00 -1.62370365E-01  2.84042176E+00 -2.04513394E+00 -1.62370365E-01
  2.84042176E+00 -2.04513394E+00 -1.62370365E-01  2.84042176E+00 -2.04513394E+00
 -1.62370365E-01  2.84042176E+00 -2.43795542E-01  4.41906436E-01 -2.64805299E+00
 -2.43795542E-01  4.41906436E-01 -2.64805299E+00 -2.43795542E-01  4.41906436E-01
 -2.64805299E+00 -2.43795542E-01  4.41906436E-01 -2.64805299E+00 -2.43795542E-01
  4.41906436E-01 -2.64805299E+00  1.33691306E+00  3.49552005E+00  2.07967545E+00
  1.33691306E+00  3.49552005E+00  2.07967545E+00  1.33691306E+00  3.49552005E+00
  2.07967545E+00  1.33691306E+00  3.49552005E+00  2.07967545E+00  1.33691306E+00
  3.49552005E+00  2.07967545E+00 -5.46131164E-01  4.77645830E+00 -4.13881437E-01
 -5.46131164E-01  4.77645830E+00 -4.13881437E-01 -5.46131164E-01  4.77645830E+00
 -4.13881437E-01 -5.46131164E-01  4.77645830E+00 -4.13881437E-01 -5.46131164E-01
  4.77645830E+00 -4.13881437E-01  2.61660021E+00 -1.57947922E+00  4.75112130E-02
  2.61660021E+00 -1.57947922E+00  4.75112130E-02  2.61660021E+00 -1.57947922E+00
  4.75112130E-02  2.61660021E+00 -1.57947922E+00  4.75112130E-02  2.61660021E+00
 -1.57947922E+00  4.75112130E-02  2.61660021E+00 -1.57947922E+00  4.75112130E-02
  2.61660021E+00 -1.57947922E+00  4.75112130E-02  2.61660021E+00 -1.57947922E+00
  4.75112130E-02  2.61660021E+00 -1.57947922E+00  4.75112130E-02  2.61660021E+00
 -1.57947922E+00  4.75112130E-02  2.61660021E+00 -1.57947922E+00  4.75112130E-02
  2.61660021E+00 -1.57947922E+00  4.75112130E-02  2.61660021E+00 -1.57947922E+00
  4.75112130E-02
Constraint Structure                       R   N=          36
  8.57769813E-01  3.33712355E+00  7.59180157E-02  1.07594974E-02  6.28483449E-01
 -6.13329139E-01 -2.28275858E+00 -1.60854981E-01  7.95883722E-01 -4.41228716E+00
 -9.48324902E-01 -2.78643849E-01 -4.53120767E+00 -1.05650600E+00 -2.32558289E+00
  2.58555836E+00  3.70917435E+00 -9.98731114E-01 -6.07930813E+00 -1.49159871E+00
  7.79488106E-01 -2.04513394E+00 -1.62370365E-01  2.84042176E+00 -2.43795542E-01
  4.41906436E-01 -2.64805299E+00  1.33691306E+00  3.49552005E+00  2.07967545E+00
 -5.46131164E-01  4.77645830E+00 -4.13881437E-01  2.61660021E+00 -1.57947922E+00
  4.75112130E-02
Num ILSW                                   I              100
ILSW                                       I   N=         100
           0           0           0           0           2           0
           0           0           0           0         402          -1
           5           0           0           0           0           0
           0           0           0           0           0           0
           1           0           0           0           0           0
           0           0      100000           0          -1           0
           0           0           0           0           0           0
           0           0           0           1           0           0
           0           0           1           0           0           0
           0           0           4          41           0           0
           0           0           5           0           0           0
           0           0           0           0           0           0
           0           0           0           0           0           0
           0           0           0           0           0           0
           0           0           0           0           0           0
           0           0           0           0           0           0
           0           0           0           0
Num RLSW                                   I               41
RLSW                                       R   N=          41
  8.00000000E-01  7.20000000E-01  1.00000000E+00  8.10000000E-01  2.00000000E-01
  0.00000000E+00  0.00000000E+00  1.00000000E+00  0.00000000E+00  0.00000000E+00
  0.00000000E+00  0.00000000E+00  1.00000000E+00  0.00000000E+00  0.00000000E+00
  0.00000000E+00  0.00000000E+00  1.00000000E+00  0.00000000E+00  0.00000000E+00
  0.00000000E+00  0.00000000E+00  1.00000000E+00  0.00000000E+00  0.00000000E+00
  0.00000000E+00  0.00000000E+00  1.00000000E+00  0.00000000E+00  0.00000000E+00
  0.00000000E+00  0.00000000E+00  0.00000000E+00  0.00000000E+00  0.00000000E+00
  0.00000000E+00  0.00000000E+00  0.00000000E+00  1.00000000E+00  1.00000000E+00
  0.00000000E+00
MxBond                                     I                4
NBond                                      I   N=          12
           4           4           3           3           1           1
           1           1           1           1           1           1
IBond                                      I   N=          48
           2           6          10          11           1           3
           9          12           2           4           8           0
           3           5           7           0           4           0
           0           0           1           0           0           0
           4           0           0           0           3           0
           0           0           2           0           0           0
           1           0           0           0           1           0
           0           0           2           0           0           0
RBond                                      R   N=          48
  1.00000000E+00  1.00000000E+00  1.00000000E+00  1.00000000E+00  1.00000000E+00
  1.00000000E+00  1.00000000E+00  1.00000000E+00  1.00000000E+00  2.00000000E+00
  1.00000000E+00  0.00000000E+00  2.00000000E+00  1.00000000E+00  1.00000000E+00
  0.00000000E+00  1.00000000E+00  0.00000000E+00  0.00000000E+00  0.00000000E+00
  1.00000000E+00  0.00000000E+00  0.00000000E+00  0.00000000E+00  1.00000000E+00
  0.00000000E+00  0.00000000E+00  0.00000000E+00  1.00000000E+00  0.00000000E+00
  0.00000000E+00  0.00000000E+00  1.00000000E+00  0.00000000E+00  0.00000000E+00
  0.00000000E+00  1.00000000E+00  0.00000000E+00  0.00000000E+00  0.00000000E+00
  1.00000000E+00  0.00000000E+00  0.00000000E+00  0.00000000E+00  1.00000000E+00
  0.00000000E+00  0.00000000E+00  0.00000000E+00
Virial Ratio                               R      2.003072459130375E+00
SCF Energy                                 R     -6.168939276792654E+02
Total Energy                               R     -6.168939276792654E+02
RMS Density                                R      8.723965484986764E-12
Nuclear derivative order                   I                0
External E-field                           R   N=          35
  0.00000000E+00  0.00000000E+00  0.00000000E+00  0.00000000E+00  0.00000000E+00
  0.00000000E+00  0.00000000E+00  0.00000000E+00  0.00000000E+00  0.00000000E+00
  0.00000000E+00  0.00000000E+00  0.00000000E+00  0.00000000E+00  0.00000000E+00
  0.00000000E+00  0.00000000E+00  0.00000000E+00  0.00000000E+00  0.00000000E+00
  0.00000000E+00  0.00000000E+00  0.00000000E+00  0.00000000E+00  0.00000000E+00
  0.00000000E+00  0.00000000E+00  0.00000000E+00  0.00000000E+00  0.00000000E+00
  0.00000000E+00  0.00000000E+00  0.00000000E+00  0.00000000E+00  0.00000000E+00
IOpCl                                      I                0
IROHF                                      I                0
Alpha Orbital Energies                     R   N=         167
 -1.01536630E+02 -1.02473163E+01 -1.01924783E+01 -1.01832529E+01 -1.01822212E+01
 -9.45114374E+00 -7.21552107E+00 -7.20601892E+00 -7.20587528E+00 -8.69458312E-01
 -7.87892227E-01 -7.38969908E-01 -6.41061830E-01 -5.77438128E-01 -4.86454648E-01
 -4.74231360E-01 -4.42877398E-01 -4.17502035E-01 -4.01025290E-01 -3.76296627E-01
 -3.66496426E-01 -3.06982157E-01 -2.99988261E-01 -2.80277567E-01 -3.19465737E-02
 -6.98482161E-03  6.37952771E-03  7.79580555E-03  2.21589341E-02  2.74796957E-02
  3.91770562E-02  4.14838144E-02  6.36974181E-02  6.57198226E-02  7.23964479E-02
  8.33483464E-02  8.78835117E-02  9.93979864E-02  1.09538286E-01  1.15993269E-01
  1.17849948E-01  1.21583246E-01  1.29657752E-01  1.30024001E-01  1.35144403E-01
  1.42451795E-01  1.50328546E-01  1.56675256E-01  1.61225428E-01  1.65542339E-01
  1.71900757E-01  1.87206644E-01  1.92076058E-01  2.16033564E-01  2.17079408E-01
  2.24440500E-01  2.44763196E-01  2.61998618E-01  2.73886351E-01  2.92042702E-01
  3.40203730E-01  3.57308529E-01  3.89336765E-01  4.25924901E-01  4.30029817E-01
  4.47169785E-01  4.57930118E-01  4.81888174E-01  4.87466467E-01  4.95737563E-01
  5.25209299E-01  5.29843844E-01  5.66949503E-01  5.87194376E-01  5.99666525E-01
  6.17882099E-01  6.35836621E-01  6.51358343E-01  6.60448983E-01  6.66176813E-01
  6.91007808E-01  7.12511114E-01  7.37509333E-01  7.41481056E-01  7.90820485E-01
  8.12819252E-01  8.29375139E-01  8.60412190E-01  8.90164473E-01  8.99869929E-01
  9.38086990E-01  9.50631263E-01  1.00488472E+00  1.03125780E+00  1.06735466E+00
  1.09029887E+00  1.12648481E+00  1.18617770E+00  1.19953853E+00  1.28306378E+00
  1.38032666E+00  1.42564664E+00  1.45213566E+00  1.47318410E+00  1.51079036E+00
  1.54363909E+00  1.56284608E+00  1.58436741E+00  1.59665108E+00  1.62393062E+00
  1.67356768E+00  1.68865712E+00  1.69972426E+00  1.72524446E+00  1.77898004E+00
  1.78668930E+00  1.87530130E+00  1.88564001E+00  1.94268140E+00  1.97133624E+00
  2.01741874E+00  2.07744028E+00  2.11530646E+00  2.17132627E+00  2.19003600E+00
  2.20466369E+00  2.25513433E+00  2.29302098E+00  2.31083029E+00  2.35503789E+00
  2.38036275E+00  2.45670777E+00  2.46558998E+00  2.49466529E+00  2.53053026E+00
  2.56564300E+00  2.57263113E+00  2.58858624E+00  2.60236413E+00  2.63255765E+00
  2.73117846E+00  2.73845455E+00  2.76102443E+00  2.78020654E+00  2.84688888E+00
  2.86341010E+00  2.92800422E+00  3.07565656E+00  3.10254217E+00  3.18320448E+00
  3.38858990E+00  3.51584534E+00  3.71806270E+00  3.78330320E+00  3.79087800E+00
  3.94883654E+00  4.10280226E+00  4.28205277E+00  9.75592662E+00  2.37105558E+01
  2.37936751E+01  2.39386274E+01  2.42618158E+01  2.59360309E+01  2.59714736E+01
  2.64512492E+01  2.15745869E+02
Alpha MO coefficients                      R   N=       27889
  2.61814606E-07 -6.04567859E-07 -2.20541229E-06 -2.33052625E-06 -1.02601611E-06
  1.00807331E-06  1.74068834E-05  1.47909360E-05  8.17716468E-06  1.82468098E-05
  4.13893371E-05  2.77459089E-05  2.10040593E-05 -1.66432468E-03 -1.53641071E-04
  5.20406032E-04  4.30286927E-05  7.12837435E-06 -2.25306607E-06 -3.71731780E-06
  1.46061002E-05 -1.21720324E-06  1.36536672E-06 -2.70296738E-06  1.35881967E-05
 -1.25588072E-05  5.06585109E-06 -1.60794447E-05 -1.78434980E-05  1.95358035E-05
 -1.73968376E-05  1.73114288E-04  1.35119460E-04 -1.24204522E-04 -1.27207985E-05
  3.97495608E-03 -5.39838071E-04  4.39380892E-04  8.37632041E-04  1.03151560E-05
 -3.15713008E-06  3.43518789E-06 -2.35780576E-06  9.26678744E-06 -6.94976551E-07
  2.02766344E-06  4.46251317E-06 -2.19003495E-06 -4.21481455E-06 -1.00526258E-05
 -2.60792422E-05  7.85138739E-06  2.53022902E-05  4.62299601E-05  1.40167220E-05
 -7.36412116E-06 -5.63857799E-05 -1.37618649E-03 -1.24505570E-03 -3.83927401E-04
  2.03628536E-06  7.63931131E-06  8.27436418E-06 -6.19757345E-06  7.42263867E-07
 -4.30800507E-06  2.87537838E-07 -8.57108337E-07 -1.66574187E-06  8.05005547E-07
  6.36275323E-07  9.48438765E-06  6.97220363E-06 -3.24378442E-06  1.48317312E-06
 -5.63849940E-05 -9.12882913E-05 -2.17217967E-05  5.77250530E-05 -1.56721122E-03
 -3.14436684E-04 -1.78489017E-04 -1.39706718E-04 -4.45877788E-06 -2.11072931E-06
 -3.71269936E-06 -1.98292943E-06 -2.24698761E-06 -3.40073282E-06  3.57753978E-05
  5.01953105E-05  3.09441332E-05  6.46614148E-06  3.15463860E-07  6.02995919E-06
  1.25075138E-05 -8.73146250E-05  8.02355374E-05  2.40168902E-04  8.17179245E-06
  1.22659857E-05 -1.09760246E-05  2.44645020E-06 -2.25619418E-05 -5.35124814E-05
 -1.17062792E-04 -1.39171125E-06 -4.28124143E-07  1.42402123E-06  5.19176858E-06
 -3.84126699E-05  4.36301704E-05  9.18725514E-05 -1.10291162E-05  1.70227928E-06
  1.48482278E-05 -1.65785733E-06 -6.01339293E-05 -1.30623458E-04  1.00707310E-04
 -5.27561007E-06  3.74401280E-07 -1.53828684E-05  1.01921150E-05 -6.44602100E-05
 -1.65093814E-05  7.71249844E-05 -4.36157426E-06  1.23418649E-05  1.53731805E-05
 -7.61551683E-06  3.46564745E-05 -1.26648971E-04 -2.99449681E-04 -5.21577313E-07
 -3.57232041E-06 -5.72867771E-07  4.11609625E-01  6.54076068E-01  1.50045375E-02