(R)-3-chloro-1-butene tau=120                                           
SP        RB3LYP                                                      6-311++G(d,p)       
Number of atoms                            I               12
Info1-9                                    I   N=           9
          26          26           0           0           0         110
           1          18        -502
Full Title                                 C   N=           3
(R)-3-chloro-1-butene tau=120       
Route                                      C   N=           7
#P B3LYP/6-311++G** scf(conver=11) int=ultrafine polar=optro
t cphf(rdfreq,conver=11)
Charge                                     I                0
Multiplicity                               I                1
Number of electrons                        I               48
Number of alpha electrons                  I               24
Number of beta electrons                   I               24
Number of basis functions                  I              167
Number of independent functions            I              167
Number of point charges in /Mol/           I                0
Number of translation vectors              I                0
Atomic numbers                             I   N=          12
           6           6           6           6           1           1
           1           1           1           1           1          17
Nuclear charges                            R   N=          12
  6.00000000E+00  6.00000000E+00  6.00000000E+00  6.00000000E+00  1.00000000E+00
  1.00000000E+00  1.00000000E+00  1.00000000E+00  1.00000000E+00  1.00000000E+00
  1.00000000E+00  1.70000000E+01
Current cartesian coordinates              R   N=          36
  8.92942456E-01  3.31190549E+00  7.51048805E-02 -3.08004688E-03  6.70661789E-01
 -6.23269684E-01 -2.28961966E+00 -1.81711199E-01  8.17302192E-01 -4.40446960E+00
 -9.34789236E-01 -3.07464736E-01 -4.60491836E+00 -1.05704997E+00 -2.34428895E+00
  2.58618045E+00  3.82141384E+00 -9.85166564E-01 -6.02581434E+00 -1.46787871E+00
  8.25436468E-01 -2.12672281E+00 -1.06292382E-01  2.86426366E+00 -1.17090143E-01
  3.69492535E-01 -2.66545874E+00  1.27135648E+00  3.50168340E+00  2.09503277E+00
 -6.06003007E-01  4.64706550E+00 -4.28548265E-01  2.61461017E+00 -1.58263737E+00
  5.10996294E-02
Number of symbols in /Mol/                 I                0
Force Field                                I                0
Atom Types                                 C   N=          12
                                                            
                                                            
                        
Int Atom Types                             I   N=          12
           0           0           0           0           0           0
           0           0           0           0           0           0
MM charges                                 R   N=          12
  0.00000000E+00  0.00000000E+00  0.00000000E+00  0.00000000E+00  0.00000000E+00
  0.00000000E+00  0.00000000E+00  0.00000000E+00  0.00000000E+00  0.00000000E+00
  0.00000000E+00  0.00000000E+00
Integer atomic weights                     I   N=          12
          12          12          12          12           1           1
           1           1           1           1           1          35
Real atomic weights                        R   N=          12
  1.20000000E+01  1.20000000E+01  1.20000000E+01  1.20000000E+01  1.00782504E+00
  1.00782504E+00  1.00782504E+00  1.00782504E+00  1.00782504E+00  1.00782504E+00
  1.00782504E+00  3.49688527E+01
Atom fragment info                         I   N=          12
           0           0           0           0           0           0
           0           0           0           0           0           0
Atom residue num                           I   N=          12
           0           0           0           0           0           0
           0           0           0           0           0           0
Nuclear spins                              I   N=          12
           0           0           0           0           1           1
           1           1           1           1           1           3
Nuclear ZEff                               R   N=          12
 -3.60000000E+00 -3.60000000E+00 -3.60000000E+00 -3.60000000E+00 -1.00000000E+00
 -1.00000000E+00 -1.00000000E+00 -1.00000000E+00 -1.00000000E+00 -1.00000000E+00
 -1.00000000E+00 -1.42400000E+01
Nuclear ZNuc                               R   N=          12
  6.00000000E+00  6.00000000E+00  6.00000000E+00  6.00000000E+00  1.00000000E+00
  1.00000000E+00  1.00000000E+00  1.00000000E+00  1.00000000E+00  1.00000000E+00
  1.00000000E+00  1.70000000E+01
Nuclear QMom                               R   N=          12
  0.00000000E+00  0.00000000E+00  0.00000000E+00  0.00000000E+00  0.00000000E+00
  0.00000000E+00  0.00000000E+00  0.00000000E+00  0.00000000E+00  0.00000000E+00
  0.00000000E+00 -8.16500000E+00
Nuclear GFac                               R   N=          12
  0.00000000E+00  0.00000000E+00  0.00000000E+00  0.00000000E+00  2.79284600E+00
  2.79284600E+00  2.79284600E+00  2.79284600E+00  2.79284600E+00  2.79284600E+00
  2.79284600E+00  8.21874000E-01
MicOpt                                     I   N=          12
          -1          -1          -1          -1          -1          -1
          -1          -1          -1          -1          -1          -1
Number of residues                         I                0
Number of secondary structures             I                0
SymInf integers                            I   N=          26
           1           1           1           1           1           0
           0           0           0           0           0           0
           0           0           0           0           0           0
           0           0           0           0           0           0
           0           0
RotTr to input orientation                 R   N=          12
  9.99997652E-01  9.01729163E-04 -1.97037777E-03 -8.95701594E-04  9.99994924E-01
  3.05783756E-03  1.97312510E-03 -3.05606551E-03  9.99993384E-01  1.77760238E-03
 -9.59534428E-04 -6.64156060E-05
Number of contracted shells                I               72
Number of primitive shells                 I              126
Pure/Cartesian d shells                    I                0
Pure/Cartesian f shells                    I                0
Highest angular momentum                   I                2
Largest degree of contraction              I                6
Shell types                                I   N=          72
           0          -1          -1          -1          -1          -2
           0          -1          -1          -1          -1          -2
           0          -1          -1          -1          -1          -2
           0          -1          -1          -1          -1          -2
           0           0           0           0           1           0
           0           0           0           1           0           0
           0           0           1           0           0           0
           0           1           0           0           0           0
           1           0           0           0           0           1
           0           0           0           0           1           0
           0           0           0           0           0          -1
           1           1           1           1           1          -2
Number of primitives per shell             I   N=          72
           6           3           1           1           1           1
           6           3           1           1           1           1
           6           3           1           1           1           1
           6           3           1           1           1           1
           3           1           1           1           1           3
           1           1           1           1           3           1
           1           1           1           3           1           1
           1           1           3           1           1           1
           1           3           1           1           1           1
           3           1           1           1           1           6
           3           1           1           1           1           1
           5           2           1           1           1           1
Shell to atom map                          I   N=          72
           1           1           1           1           1           1
           2           2           2           2           2           2
           3           3           3           3           3           3
           4           4           4           4           4           4
           5           5           5           5           5           6
           6           6           6           6           7           7
           7           7           7           8           8           8
           8           8           9           9           9           9
           9          10          10          10          10          10
          11          11          11          11          11          12
          12          12          12          12          12          12
          12          12          12          12          12          12
Primitive exponents                        R   N=         126
  4.56324000E+03  6.82024000E+02  1.54973000E+02  4.44553000E+01  1.30290000E+01
  1.82773000E+00  2.09642000E+01  4.80331000E+00  1.45933000E+00  4.83456000E-01
  1.45585000E-01  4.38000000E-02  6.26000000E-01  4.56324000E+03  6.82024000E+02
  1.54973000E+02  4.44553000E+01  1.30290000E+01  1.82773000E+00  2.09642000E+01
  4.80331000E+00  1.45933000E+00  4.83456000E-01  1.45585000E-01  4.38000000E-02
  6.26000000E-01  4.56324000E+03  6.82024000E+02  1.54973000E+02  4.44553000E+01
  1.30290000E+01  1.82773000E+00  2.09642000E+01  4.80331000E+00  1.45933000E+00
  4.83456000E-01  1.45585000E-01  4.38000000E-02  6.26000000E-01  4.56324000E+03
  6.82024000E+02  1.54973000E+02  4.44553000E+01  1.30290000E+01  1.82773000E+00
  2.09642000E+01  4.80331000E+00  1.45933000E+00  4.83456000E-01  1.45585000E-01
  4.38000000E-02  6.26000000E-01  3.38650000E+01  5.09479000E+00  1.15879000E+00
  3.25840000E-01  1.02741000E-01  3.60000000E-02  7.50000000E-01  3.38650000E+01
  5.09479000E+00  1.15879000E+00  3.25840000E-01  1.02741000E-01  3.60000000E-02
  7.50000000E-01  3.38650000E+01  5.09479000E+00  1.15879000E+00  3.25840000E-01
  1.02741000E-01  3.60000000E-02  7.50000000E-01  3.38650000E+01  5.09479000E+00
  1.15879000E+00  3.25840000E-01  1.02741000E-01  3.60000000E-02  7.50000000E-01
  3.38650000E+01  5.09479000E+00  1.15879000E+00  3.25840000E-01  1.02741000E-01
  3.60000000E-02  7.50000000E-01  3.38650000E+01  5.09479000E+00  1.15879000E+00
  3.25840000E-01  1.02741000E-01  3.60000000E-02  7.50000000E-01  3.38650000E+01
  5.09479000E+00  1.15879000E+00  3.25840000E-01  1.02741000E-01  3.60000000E-02
  7.50000000E-01  1.05819000E+05  1.58720000E+04  3.61965000E+03  1.03080000E+03
  3.39908000E+02  1.24538000E+02  1.24538000E+02  4.95135000E+01  2.08056000E+01
  6.58346000E+00  2.56468000E+00  5.59763000E-01  1.83273000E-01  4.83000000E-02
  5.89776000E+02  1.39849000E+02  4.51413000E+01  1.68733000E+01  2.77152000E+00
  6.74110000E+00  2.77152000E+00  1.02387000E+00  3.81368000E-01  1.09437000E-01
  7.50000000E-01
Contraction coefficients                   R   N=         126
  1.96665025E-03  1.52306019E-02  7.61269097E-02  2.60801033E-01  6.16462078E-01
  2.21006028E-01  1.14660081E-01  9.19999648E-01 -3.03068213E-03  1.00000000E+00
  1.00000000E+00  1.00000000E+00  1.00000000E+00  1.96665025E-03  1.52306019E-02
  7.61269097E-02  2.60801033E-01  6.16462078E-01  2.21006028E-01  1.14660081E-01
  9.19999648E-01 -3.03068213E-03  1.00000000E+00  1.00000000E+00  1.00000000E+00
  1.00000000E+00  1.96665025E-03  1.52306019E-02  7.61269097E-02  2.60801033E-01
  6.16462078E-01  2.21006028E-01  1.14660081E-01  9.19999648E-01 -3.03068213E-03
  1.00000000E+00  1.00000000E+00  1.00000000E+00  1.00000000E+00  1.96665025E-03
  1.52306019E-02  7.61269097E-02  2.60801033E-01  6.16462078E-01  2.21006028E-01
  1.14660081E-01  9.19999648E-01 -3.03068213E-03  1.00000000E+00  1.00000000E+00
  1.00000000E+00  1.00000000E+00  2.54938145E-02  1.90373109E-01  8.52161486E-01
  1.00000000E+00  1.00000000E+00  1.00000000E+00  1.00000000E+00  2.54938145E-02
  1.90373109E-01  8.52161486E-01  1.00000000E+00  1.00000000E+00  1.00000000E+00
  1.00000000E+00  2.54938145E-02  1.90373109E-01  8.52161486E-01  1.00000000E+00
  1.00000000E+00  1.00000000E+00  1.00000000E+00  2.54938145E-02  1.90373109E-01
  8.52161486E-01  1.00000000E+00  1.00000000E+00  1.00000000E+00  1.00000000E+00
  2.54938145E-02  1.90373109E-01  8.52161486E-01  1.00000000E+00  1.00000000E+00
  1.00000000E+00  1.00000000E+00  2.54938145E-02  1.90373109E-01  8.52161486E-01
  1.00000000E+00  1.00000000E+00  1.00000000E+00  1.00000000E+00  2.54938145E-02
  1.90373109E-01  8.52161486E-01  1.00000000E+00  1.00000000E+00  1.00000000E+00
  1.00000000E+00  7.38000247E-04  5.71800191E-03  2.94950099E-02  1.17286039E-01
  3.62949121E-01  5.84149195E-01  1.34176973E-01  6.24249876E-01  2.91755942E-01
  1.00000000E+00  1.00000000E+00  1.00000000E+00  1.00000000E+00  1.00000000E+00
  3.66556935E-03  2.83679194E-02  1.24756603E-01  3.39654631E-01  7.47585963E-01
 -1.57224381E+00  9.92388882E-01  1.00000000E+00  1.00000000E+00  1.00000000E+00
  1.00000000E+00
P(S=P) Contraction coefficients            R   N=         126
  0.00000000E+00  0.00000000E+00  0.00000000E+00  0.00000000E+00  0.00000000E+00
  0.00000000E+00  4.02486927E-02  2.37593957E-01  8.15853851E-01  1.00000000E+00
  1.00000000E+00  1.00000000E+00  0.00000000E+00  0.00000000E+00  0.00000000E+00
  0.00000000E+00  0.00000000E+00  0.00000000E+00  0.00000000E+00  4.02486927E-02
  2.37593957E-01  8.15853851E-01  1.00000000E+00  1.00000000E+00  1.00000000E+00
  0.00000000E+00  0.00000000E+00  0.00000000E+00  0.00000000E+00  0.00000000E+00
  0.00000000E+00  0.00000000E+00  4.02486927E-02  2.37593957E-01  8.15853851E-01
  1.00000000E+00  1.00000000E+00  1.00000000E+00  0.00000000E+00  0.00000000E+00
  0.00000000E+00  0.00000000E+00  0.00000000E+00  0.00000000E+00  0.00000000E+00
  4.02486927E-02  2.37593957E-01  8.15853851E-01  1.00000000E+00  1.00000000E+00
  1.00000000E+00  0.00000000E+00  0.00000000E+00  0.00000000E+00  0.00000000E+00
  0.00000000E+00  0.00000000E+00  0.00000000E+00  0.00000000E+00  0.00000000E+00
  0.00000000E+00  0.00000000E+00  0.00000000E+00  0.00000000E+00  0.00000000E+00
  0.00000000E+00  0.00000000E+00  0.00000000E+00  0.00000000E+00  0.00000000E+00
  0.00000000E+00  0.00000000E+00  0.00000000E+00  0.00000000E+00  0.00000000E+00
  0.00000000E+00  0.00000000E+00  0.00000000E+00  0.00000000E+00  0.00000000E+00
  0.00000000E+00  0.00000000E+00  0.00000000E+00  0.00000000E+00  0.00000000E+00
  0.00000000E+00  0.00000000E+00  0.00000000E+00  0.00000000E+00  0.00000000E+00
  0.00000000E+00  0.00000000E+00  0.00000000E+00  0.00000000E+00  0.00000000E+00
  0.00000000E+00  0.00000000E+00  0.00000000E+00  0.00000000E+00  0.00000000E+00
  0.00000000E+00  0.00000000E+00  0.00000000E+00  0.00000000E+00  0.00000000E+00
  0.00000000E+00  0.00000000E+00  0.00000000E+00  0.00000000E+00  0.00000000E+00
  0.00000000E+00  0.00000000E+00  0.00000000E+00  0.00000000E+00  1.00000000E+00
  0.00000000E+00  0.00000000E+00  0.00000000E+00  0.00000000E+00  0.00000000E+00
  0.00000000E+00  0.00000000E+00  0.00000000E+00  0.00000000E+00  0.00000000E+00
  0.00000000E+00
Coordinates of each shell                  R   N=         216
  8.92942456E-01  3.31190549E+00  7.51048805E-02  8.92942456E-01  3.31190549E+00
  7.51048805E-02  8.92942456E-01  3.31190549E+00  7.51048805E-02  8.92942456E-01
  3.31190549E+00  7.51048805E-02  8.92942456E-01  3.31190549E+00  7.51048805E-02
  8.92942456E-01  3.31190549E+00  7.51048805E-02 -3.08004688E-03  6.70661789E-01
 -6.23269684E-01 -3.08004688E-03  6.70661789E-01 -6.23269684E-01 -3.08004688E-03
  6.70661789E-01 -6.23269684E-01 -3.08004688E-03  6.70661789E-01 -6.23269684E-01
 -3.08004688E-03  6.70661789E-01 -6.23269684E-01 -3.08004688E-03  6.70661789E-01
 -6.23269684E-01 -2.28961966E+00 -1.81711199E-01  8.17302192E-01 -2.28961966E+00
 -1.81711199E-01  8.17302192E-01 -2.28961966E+00 -1.81711199E-01  8.17302192E-01
 -2.28961966E+00 -1.81711199E-01  8.17302192E-01 -2.28961966E+00 -1.81711199E-01
  8.17302192E-01 -2.28961966E+00 -1.81711199E-01  8.17302192E-01 -4.40446960E+00
 -9.34789236E-01 -3.07464736E-01 -4.40446960E+00 -9.34789236E-01 -3.07464736E-01
 -4.40446960E+00 -9.34789236E-01 -3.07464736E-01 -4.40446960E+00 -9.34789236E-01
 -3.07464736E-01 -4.40446960E+00 -9.34789236E-01 -3.07464736E-01 -4.40446960E+00
 -9.34789236E-01 -3.07464736E-01 -4.60491836E+00 -1.05704997E+00 -2.34428895E+00
 -4.60491836E+00 -1.05704997E+00 -2.34428895E+00 -4.60491836E+00 -1.05704997E+00
 -2.34428895E+00 -4.60491836E+00 -1.05704997E+00 -2.34428895E+00 -4.60491836E+00
 -1.05704997E+00 -2.34428895E+00  2.58618045E+00  3.82141384E+00 -9.85166564E-01
  2.58618045E+00  3.82141384E+00 -9.85166564E-01  2.58618045E+00  3.82141384E+00
 -9.85166564E-01  2.58618045E+00  3.82141384E+00 -9.85166564E-01  2.58618045E+00
  3.82141384E+00 -9.85166564E-01 -6.02581434E+00 -1.46787871E+00  8.25436468E-01
 -6.02581434E+00 -1.46787871E+00  8.25436468E-01 -6.02581434E+00 -1.46787871E+00
  8.25436468E-01 -6.02581434E+00 -1.46787871E+00  8.25436468E-01 -6.02581434E+00
 -1.46787871E+00  8.25436468E-01 -2.12672281E+00 -1.06292382E-01  2.86426366E+00
 -2.12672281E+00 -1.06292382E-01  2.86426366E+00 -2.12672281E+00 -1.06292382E-01
  2.86426366E+00 -2.12672281E+00 -1.06292382E-01  2.86426366E+00 -2.12672281E+00
 -1.06292382E-01  2.86426366E+00 -1.17090143E-01  3.69492535E-01 -2.66545874E+00
 -1.17090143E-01  3.69492535E-01 -2.66545874E+00 -1.17090143E-01  3.69492535E-01
 -2.66545874E+00 -1.17090143E-01  3.69492535E-01 -2.66545874E+00 -1.17090143E-01
  3.69492535E-01 -2.66545874E+00  1.27135648E+00  3.50168340E+00  2.09503277E+00
  1.27135648E+00  3.50168340E+00  2.09503277E+00  1.27135648E+00  3.50168340E+00
  2.09503277E+00  1.27135648E+00  3.50168340E+00  2.09503277E+00  1.27135648E+00
  3.50168340E+00  2.09503277E+00 -6.06003007E-01  4.64706550E+00 -4.28548265E-01
 -6.06003007E-01  4.64706550E+00 -4.28548265E-01 -6.06003007E-01  4.64706550E+00
 -4.28548265E-01 -6.06003007E-01  4.64706550E+00 -4.28548265E-01 -6.06003007E-01
  4.64706550E+00 -4.28548265E-01  2.61461017E+00 -1.58263737E+00  5.10996294E-02
  2.61461017E+00 -1.58263737E+00  5.10996294E-02  2.61461017E+00 -1.58263737E+00
  5.10996294E-02  2.61461017E+00 -1.58263737E+00  5.10996294E-02  2.61461017E+00
 -1.58263737E+00  5.10996294E-02  2.61461017E+00 -1.58263737E+00  5.10996294E-02
  2.61461017E+00 -1.58263737E+00  5.10996294E-02  2.61461017E+00 -1.58263737E+00
  5.10996294E-02  2.61461017E+00 -1.58263737E+00  5.10996294E-02  2.61461017E+00
 -1.58263737E+00  5.10996294E-02  2.61461017E+00 -1.58263737E+00  5.10996294E-02
  2.61461017E+00 -1.58263737E+00  5.10996294E-02  2.61461017E+00 -1.58263737E+00
  5.10996294E-02
Constraint Structure                       R   N=          36
  8.92942456E-01  3.31190549E+00  7.51048805E-02 -3.08004688E-03  6.70661789E-01
 -6.23269684E-01 -2.28961966E+00 -1.81711199E-01  8.17302192E-01 -4.40446960E+00
 -9.34789236E-01 -3.07464736E-01 -4.60491836E+00 -1.05704997E+00 -2.34428895E+00
  2.58618045E+00  3.82141384E+00 -9.85166564E-01 -6.02581434E+00 -1.46787871E+00
  8.25436468E-01 -2.12672281E+00 -1.06292382E-01  2.86426366E+00 -1.17090143E-01
  3.69492535E-01 -2.66545874E+00  1.27135648E+00  3.50168340E+00  2.09503277E+00
 -6.06003007E-01  4.64706550E+00 -4.28548265E-01  2.61461017E+00 -1.58263737E+00
  5.10996294E-02
Num ILSW                                   I              100
ILSW                                       I   N=         100
           0           0           0           0           2           0
           0           0           0           0         402          -1
           5           0           0           0           0           0
           0           0           0           0           0           0
           1           0           0           0           0           0
           0           0      100000           0          -1           0
           0           0           0           0           0           0
           0           0           0           1           0           0
           0           0           1           0           0           0
           0           0           4          41           0           0
           0           0           5           0           0           0
           0           0           0           0           0           0
           0           0           0           0           0           0
           0           0           0           0           0           0
           0           0           0           0           0           0
           0           0           0           0           0           0
           0           0           0           0
Num RLSW                                   I               41
RLSW                                       R   N=          41
  8.00000000E-01  7.20000000E-01  1.00000000E+00  8.10000000E-01  2.00000000E-01
  0.00000000E+00  0.00000000E+00  1.00000000E+00  0.00000000E+00  0.00000000E+00
  0.00000000E+00  0.00000000E+00  1.00000000E+00  0.00000000E+00  0.00000000E+00
  0.00000000E+00  0.00000000E+00  1.00000000E+00  0.00000000E+00  0.00000000E+00
  0.00000000E+00  0.00000000E+00  1.00000000E+00  0.00000000E+00  0.00000000E+00
  0.00000000E+00  0.00000000E+00  1.00000000E+00  0.00000000E+00  0.00000000E+00
  0.00000000E+00  0.00000000E+00  0.00000000E+00  0.00000000E+00  0.00000000E+00
  0.00000000E+00  0.00000000E+00  0.00000000E+00  1.00000000E+00  1.00000000E+00
  0.00000000E+00
MxBond                                     I                4
NBond                                      I   N=          12
           4           4           3           3           1           1
           1           1           1           1           1           1
IBond                                      I   N=          48
           2           6          10          11           1           3
           9          12           2           4           8           0
           3           5           7           0           4           0
           0           0           1           0           0           0
           4           0           0           0           3           0
           0           0           2           0           0           0
           1           0           0           0           1           0
           0           0           2           0           0           0
RBond                                      R   N=          48
  1.00000000E+00  1.00000000E+00  1.00000000E+00  1.00000000E+00  1.00000000E+00
  1.00000000E+00  1.00000000E+00  1.00000000E+00  1.00000000E+00  2.00000000E+00
  1.00000000E+00  0.00000000E+00  2.00000000E+00  1.00000000E+00  1.00000000E+00
  0.00000000E+00  1.00000000E+00  0.00000000E+00  0.00000000E+00  0.00000000E+00
  1.00000000E+00  0.00000000E+00  0.00000000E+00  0.00000000E+00  1.00000000E+00
  0.00000000E+00  0.00000000E+00  0.00000000E+00  1.00000000E+00  0.00000000E+00
  0.00000000E+00  0.00000000E+00  1.00000000E+00  0.00000000E+00  0.00000000E+00
  0.00000000E+00  1.00000000E+00  0.00000000E+00  0.00000000E+00  0.00000000E+00
  1.00000000E+00  0.00000000E+00  0.00000000E+00  0.00000000E+00  1.00000000E+00
  0.00000000E+00  0.00000000E+00  0.00000000E+00
Virial Ratio                               R      2.003058448646081E+00
SCF Energy                                 R     -6.168940107045700E+02
Total Energy                               R     -6.168940107045700E+02
RMS Density                                R      9.351405323601413E-12
Nuclear derivative order                   I                0
External E-field                           R   N=          35
  0.00000000E+00  0.00000000E+00  0.00000000E+00  0.00000000E+00  0.00000000E+00
  0.00000000E+00  0.00000000E+00  0.00000000E+00  0.00000000E+00  0.00000000E+00
  0.00000000E+00  0.00000000E+00  0.00000000E+00  0.00000000E+00  0.00000000E+00
  0.00000000E+00  0.00000000E+00  0.00000000E+00  0.00000000E+00  0.00000000E+00
  0.00000000E+00  0.00000000E+00  0.00000000E+00  0.00000000E+00  0.00000000E+00
  0.00000000E+00  0.00000000E+00  0.00000000E+00  0.00000000E+00  0.00000000E+00
  0.00000000E+00  0.00000000E+00  0.00000000E+00  0.00000000E+00  0.00000000E+00
IOpCl                                      I                0
IROHF                                      I                0
Alpha Orbital Energies                     R   N=         167
 -1.01530202E+02 -1.02485841E+01 -1.01955887E+01 -1.01842949E+01 -1.01821093E+01
 -9.44481627E+00 -7.20904016E+00 -7.19976791E+00 -7.19961038E+00 -8.65995960E-01
 -7.86323317E-01 -7.42308071E-01 -6.38939994E-01 -5.79191769E-01 -4.83911925E-01
 -4.79458951E-01 -4.43628500E-01 -4.17283179E-01 -4.06536505E-01 -3.75828859E-01
 -3.63953616E-01 -3.04257353E-01 -2.95703724E-01 -2.80405700E-01 -3.27842425E-02
 -7.72827669E-03  6.17715726E-03  6.77940591E-03  2.10698166E-02  2.76165693E-02
  3.87868774E-02  4.07191826E-02  6.32753460E-02  6.51214232E-02  7.22806074E-02
  8.29728537E-02  8.79281595E-02  9.84758983E-02  1.10882149E-01  1.15235426E-01
  1.16884098E-01  1.21681172E-01  1.29377321E-01  1.30253957E-01  1.34233758E-01
  1.40915644E-01  1.49512200E-01  1.56953358E-01  1.60424544E-01  1.64472743E-01
  1.71691074E-01  1.88008105E-01  1.91072523E-01  2.15280776E-01  2.19918045E-01
  2.27497179E-01  2.46639387E-01  2.59056944E-01  2.73316430E-01  2.90049860E-01
  3.36320365E-01  3.54958647E-01  3.91760687E-01  4.23623786E-01  4.29413558E-01
  4.49390003E-01  4.58619533E-01  4.79654100E-01  4.90328290E-01  4.96306329E-01
  5.26356339E-01  5.28051546E-01  5.68037492E-01  5.90448495E-01  6.02581008E-01
  6.24255316E-01  6.37149367E-01  6.52710029E-01  6.55946998E-01  6.61206242E-01
  6.92976726E-01  7.03380661E-01  7.34207574E-01  7.37273481E-01  7.88870838E-01
  8.15890582E-01  8.34010697E-01  8.64421174E-01  8.90928197E-01  8.96194173E-01
  9.41815618E-01  9.52165725E-01  1.00550586E+00  1.02557530E+00  1.06594377E+00
  1.08476872E+00  1.11767964E+00  1.18667342E+00  1.20806292E+00  1.28242482E+00
  1.39809785E+00  1.42892662E+00  1.44908833E+00  1.46107076E+00  1.50796622E+00
  1.54141666E+00  1.56321014E+00  1.57861275E+00  1.59188710E+00  1.61549345E+00
  1.66618873E+00  1.68480649E+00  1.69488206E+00  1.74078228E+00  1.77323169E+00
  1.78683708E+00  1.88404175E+00  1.88837730E+00  1.92711589E+00  1.98711564E+00
  2.02213393E+00  2.06805374E+00  2.12811526E+00  2.17273183E+00  2.18022342E+00
  2.19910154E+00  2.24154964E+00  2.29953317E+00  2.31245893E+00  2.35206937E+00
  2.36929007E+00  2.45883537E+00  2.46231010E+00  2.49643925E+00  2.51521854E+00
  2.56274179E+00  2.57557517E+00  2.58841181E+00  2.60976561E+00  2.63859357E+00
  2.72310175E+00  2.73815608E+00  2.75642888E+00  2.79447220E+00  2.85605179E+00
  2.86721071E+00  2.92885925E+00  3.07927265E+00  3.10062009E+00  3.17162990E+00
  3.37318855E+00  3.49953938E+00  3.71602739E+00  3.78605231E+00  3.79835327E+00
  3.95000001E+00  4.11705961E+00  4.27722793E+00  9.75790800E+00  2.37240667E+01
  2.37773086E+01  2.39438897E+01  2.42603629E+01  2.59371307E+01  2.59772871E+01
  2.64484807E+01  2.15748256E+02
Alpha MO coefficients                      R   N=       27889
  1.49404609E-07 -3.13545317E-07 -2.74207550E-06 -2.10735587E-06 -1.39352032E-06
  1.30774707E-06  2.01638339E-05  1.51839532E-05  1.01182252E-05  8.49654979E-06
  3.71439430E-05  3.15114994E-05  2.45441239E-05 -1.68221384E-03 -1.38608896E-04
  4.98180197E-04  4.23927793E-05  8.76438798E-06 -3.99849671E-06 -4.48890951E-06
  1.28731904E-05  4.73814827E-07  1.05036963E-06 -1.93769644E-06  1.16638993E-05
 -1.22765360E-05  3.13819664E-06 -1.99403700E-05 -1.18710553E-05  2.18099698E-05
 -5.77628487E-06  1.61861941E-04  1.36509247E-04 -1.23949266E-04 -1.54830651E-05
  3.81717729E-03 -4.78121352E-04  4.24411911E-04  7.75910883E-04  2.86293229E-06
 -2.35267488E-06  1.72607239E-06 -2.58401325E-06  6.48825608E-06 -6.03586700E-07
  1.76248383E-06  4.14136715E-06 -2.46921449E-06 -4.04705842E-06 -8.66696179E-06
 -2.46889033E-05  9.32374646E-06  2.50788800E-05  3.21064001E-05  1.85433732E-05
 -6.10172416E-06 -5.75868528E-05 -1.21832061E-03 -1.15607190E-03 -3.61827687E-04
 -6.85999063E-05  7.38269039E-06  6.75936939E-06 -5.39990424E-06  7.42820377E-07
 -3.94644140E-06  2.75567955E-07 -8.26216658E-07 -1.93365813E-06  5.68112301E-07
  9.13680665E-07  9.02747591E-06  8.75715173E-06 -2.18993039E-06  3.48380199E-07
 -5.16960601E-05 -8.66492111E-05 -2.04106655E-05  6.28366306E-05 -1.54531023E-03
 -3.25600694E-04 -1.73476029E-04 -9.44941473E-05 -4.41387314E-06 -1.95779147E-06
 -3.86150761E-06 -2.13161627E-06 -1.83559727E-06 -3.20682741E-06  3.42273347E-05
  5.98488586E-05  7.18975387E-05  6.88365938E-06 -5.47622636E-09  5.85150859E-06
  1.19276671E-05 -8.15578814E-05  7.63701364E-05  2.26912962E-04  7.81023187E-06
  1.32911265E-05 -1.11992438E-05  2.15922982E-06 -2.00062210E-05 -5.89451776E-05
 -1.48897257E-04 -6.81224715E-07 -1.43752835E-07  1.27953103E-06  5.96192741E-06
 -3.86932101E-05  5.88799053E-05  1.36193251E-04 -1.11598861E-05  1.64072339E-06
  1.43830309E-05 -1.93615320E-06 -4.31382625E-05 -1.51857488E-04  6.20431167E-05
  6.18039345E-07 -2.61353319E-06 -5.61142244E-06  1.01857807E-05 -6.45664262E-05
 -1.24866795E-05  7.63919891E-05 -4.52949985E-06  1.23412424E-05  1.54868225E-05
 -8.04577514E-06  4.19413558E-05 -1.34115024E-04 -2.91838400E-04  9.14139460E-07
 -6.41090238E-06 -5.98149267E-07  4.11609536E-01  6.54076169E-01  1.50041102E-02