(R)-3-chloro-1-butene tau=120                                           
SP        RB3LYP                                                      6-311++G(d,p)       
Number of atoms                            I               12
Info1-9                                    I   N=           9
          26          26           0           0           0         110
           1          18        -502
Full Title                                 C   N=           3
(R)-3-chloro-1-butene tau=120       
Route                                      C   N=           7
#P B3LYP/6-311++G** scf(conver=11) int=ultrafine polar=optro
t cphf(rdfreq,conver=11)
Charge                                     I                0
Multiplicity                               I                1
Number of electrons                        I               48
Number of alpha electrons                  I               24
Number of beta electrons                   I               24
Number of basis functions                  I              167
Number of independent functions            I              167
Number of point charges in /Mol/           I                0
Number of translation vectors              I                0
Atomic numbers                             I   N=          12
           6           6           6           6           1           1
           1           1           1           1           1          17
Nuclear charges                            R   N=          12
  6.00000000E+00  6.00000000E+00  6.00000000E+00  6.00000000E+00  1.00000000E+00
  1.00000000E+00  1.00000000E+00  1.00000000E+00  1.00000000E+00  1.00000000E+00
  1.00000000E+00  1.70000000E+01
Current cartesian coordinates              R   N=          36
  8.89664051E-01  3.31124089E+00  7.13650223E-02  2.86046214E-02  6.80143471E-01
 -6.21583320E-01 -2.26550225E+00 -1.70964202E-01  8.23403070E-01 -4.41957192E+00
 -9.36122917E-01 -2.83781907E-01 -4.66092653E+00 -1.06830386E+00 -2.32059579E+00
  2.58189844E+00  3.78395624E+00 -1.00926035E+00 -6.07454840E+00 -1.48338891E+00
  7.96689282E-01 -2.05965512E+00 -7.66166689E-02  2.86815166E+00 -4.03403925E-01
  3.45714140E-01 -2.61599416E+00  1.31166248E+00  3.48728550E+00  2.08337524E+00
 -5.91039989E-01  4.65551972E+00 -4.54416715E-01  2.61746153E+00 -1.58529115E+00
  4.20960969E-02
Number of symbols in /Mol/                 I                0
Force Field                                I                0
Atom Types                                 C   N=          12
                                                            
                                                            
                        
Int Atom Types                             I   N=          12
           0           0           0           0           0           0
           0           0           0           0           0           0
MM charges                                 R   N=          12
  0.00000000E+00  0.00000000E+00  0.00000000E+00  0.00000000E+00  0.00000000E+00
  0.00000000E+00  0.00000000E+00  0.00000000E+00  0.00000000E+00  0.00000000E+00
  0.00000000E+00  0.00000000E+00
Integer atomic weights                     I   N=          12
          12          12          12          12           1           1
           1           1           1           1           1          35
Real atomic weights                        R   N=          12
  1.20000000E+01  1.20000000E+01  1.20000000E+01  1.20000000E+01  1.00782504E+00
  1.00782504E+00  1.00782504E+00  1.00782504E+00  1.00782504E+00  1.00782504E+00
  1.00782504E+00  3.49688527E+01
Atom fragment info                         I   N=          12
           0           0           0           0           0           0
           0           0           0           0           0           0
Atom residue num                           I   N=          12
           0           0           0           0           0           0
           0           0           0           0           0           0
Nuclear spins                              I   N=          12
           0           0           0           0           1           1
           1           1           1           1           1           3
Nuclear ZEff                               R   N=          12
 -3.60000000E+00 -3.60000000E+00 -3.60000000E+00 -3.60000000E+00 -1.00000000E+00
 -1.00000000E+00 -1.00000000E+00 -1.00000000E+00 -1.00000000E+00 -1.00000000E+00
 -1.00000000E+00 -1.42400000E+01
Nuclear ZNuc                               R   N=          12
  6.00000000E+00  6.00000000E+00  6.00000000E+00  6.00000000E+00  1.00000000E+00
  1.00000000E+00  1.00000000E+00  1.00000000E+00  1.00000000E+00  1.00000000E+00
  1.00000000E+00  1.70000000E+01
Nuclear QMom                               R   N=          12
  0.00000000E+00  0.00000000E+00  0.00000000E+00  0.00000000E+00  0.00000000E+00
  0.00000000E+00  0.00000000E+00  0.00000000E+00  0.00000000E+00  0.00000000E+00
  0.00000000E+00 -8.16500000E+00
Nuclear GFac                               R   N=          12
  0.00000000E+00  0.00000000E+00  0.00000000E+00  0.00000000E+00  2.79284600E+00
  2.79284600E+00  2.79284600E+00  2.79284600E+00  2.79284600E+00  2.79284600E+00
  2.79284600E+00  8.21874000E-01
MicOpt                                     I   N=          12
          -1          -1          -1          -1          -1          -1
          -1          -1          -1          -1          -1          -1
Number of residues                         I                0
Number of secondary structures             I                0
SymInf integers                            I   N=          26
           1           1           1           1           1           0
           0           0           0           0           0           0
           0           0           0           0           0           0
           0           0           0           0           0           0
           0           0
RotTr to input orientation                 R   N=          12
  9.99992561E-01  1.78804023E-03  3.41784721E-03 -1.80346311E-03  9.99988182E-01
  4.51471030E-03 -3.40973434E-03 -4.52084068E-03  9.99983968E-01 -1.33154119E-03
 -1.75314696E-03 -6.72102359E-04
Number of contracted shells                I               72
Number of primitive shells                 I              126
Pure/Cartesian d shells                    I                0
Pure/Cartesian f shells                    I                0
Highest angular momentum                   I                2
Largest degree of contraction              I                6
Shell types                                I   N=          72
           0          -1          -1          -1          -1          -2
           0          -1          -1          -1          -1          -2
           0          -1          -1          -1          -1          -2
           0          -1          -1          -1          -1          -2
           0           0           0           0           1           0
           0           0           0           1           0           0
           0           0           1           0           0           0
           0           1           0           0           0           0
           1           0           0           0           0           1
           0           0           0           0           1           0
           0           0           0           0           0          -1
           1           1           1           1           1          -2
Number of primitives per shell             I   N=          72
           6           3           1           1           1           1
           6           3           1           1           1           1
           6           3           1           1           1           1
           6           3           1           1           1           1
           3           1           1           1           1           3
           1           1           1           1           3           1
           1           1           1           3           1           1
           1           1           3           1           1           1
           1           3           1           1           1           1
           3           1           1           1           1           6
           3           1           1           1           1           1
           5           2           1           1           1           1
Shell to atom map                          I   N=          72
           1           1           1           1           1           1
           2           2           2           2           2           2
           3           3           3           3           3           3
           4           4           4           4           4           4
           5           5           5           5           5           6
           6           6           6           6           7           7
           7           7           7           8           8           8
           8           8           9           9           9           9
           9          10          10          10          10          10
          11          11          11          11          11          12
          12          12          12          12          12          12
          12          12          12          12          12          12
Primitive exponents                        R   N=         126
  4.56324000E+03  6.82024000E+02  1.54973000E+02  4.44553000E+01  1.30290000E+01
  1.82773000E+00  2.09642000E+01  4.80331000E+00  1.45933000E+00  4.83456000E-01
  1.45585000E-01  4.38000000E-02  6.26000000E-01  4.56324000E+03  6.82024000E+02
  1.54973000E+02  4.44553000E+01  1.30290000E+01  1.82773000E+00  2.09642000E+01
  4.80331000E+00  1.45933000E+00  4.83456000E-01  1.45585000E-01  4.38000000E-02
  6.26000000E-01  4.56324000E+03  6.82024000E+02  1.54973000E+02  4.44553000E+01
  1.30290000E+01  1.82773000E+00  2.09642000E+01  4.80331000E+00  1.45933000E+00
  4.83456000E-01  1.45585000E-01  4.38000000E-02  6.26000000E-01  4.56324000E+03
  6.82024000E+02  1.54973000E+02  4.44553000E+01  1.30290000E+01  1.82773000E+00
  2.09642000E+01  4.80331000E+00  1.45933000E+00  4.83456000E-01  1.45585000E-01
  4.38000000E-02  6.26000000E-01  3.38650000E+01  5.09479000E+00  1.15879000E+00
  3.25840000E-01  1.02741000E-01  3.60000000E-02  7.50000000E-01  3.38650000E+01
  5.09479000E+00  1.15879000E+00  3.25840000E-01  1.02741000E-01  3.60000000E-02
  7.50000000E-01  3.38650000E+01  5.09479000E+00  1.15879000E+00  3.25840000E-01
  1.02741000E-01  3.60000000E-02  7.50000000E-01  3.38650000E+01  5.09479000E+00
  1.15879000E+00  3.25840000E-01  1.02741000E-01  3.60000000E-02  7.50000000E-01
  3.38650000E+01  5.09479000E+00  1.15879000E+00  3.25840000E-01  1.02741000E-01
  3.60000000E-02  7.50000000E-01  3.38650000E+01  5.09479000E+00  1.15879000E+00
  3.25840000E-01  1.02741000E-01  3.60000000E-02  7.50000000E-01  3.38650000E+01
  5.09479000E+00  1.15879000E+00  3.25840000E-01  1.02741000E-01  3.60000000E-02
  7.50000000E-01  1.05819000E+05  1.58720000E+04  3.61965000E+03  1.03080000E+03
  3.39908000E+02  1.24538000E+02  1.24538000E+02  4.95135000E+01  2.08056000E+01
  6.58346000E+00  2.56468000E+00  5.59763000E-01  1.83273000E-01  4.83000000E-02
  5.89776000E+02  1.39849000E+02  4.51413000E+01  1.68733000E+01  2.77152000E+00
  6.74110000E+00  2.77152000E+00  1.02387000E+00  3.81368000E-01  1.09437000E-01
  7.50000000E-01
Contraction coefficients                   R   N=         126
  1.96665025E-03  1.52306019E-02  7.61269097E-02  2.60801033E-01  6.16462078E-01
  2.21006028E-01  1.14660081E-01  9.19999648E-01 -3.03068213E-03  1.00000000E+00
  1.00000000E+00  1.00000000E+00  1.00000000E+00  1.96665025E-03  1.52306019E-02
  7.61269097E-02  2.60801033E-01  6.16462078E-01  2.21006028E-01  1.14660081E-01
  9.19999648E-01 -3.03068213E-03  1.00000000E+00  1.00000000E+00  1.00000000E+00
  1.00000000E+00  1.96665025E-03  1.52306019E-02  7.61269097E-02  2.60801033E-01
  6.16462078E-01  2.21006028E-01  1.14660081E-01  9.19999648E-01 -3.03068213E-03
  1.00000000E+00  1.00000000E+00  1.00000000E+00  1.00000000E+00  1.96665025E-03
  1.52306019E-02  7.61269097E-02  2.60801033E-01  6.16462078E-01  2.21006028E-01
  1.14660081E-01  9.19999648E-01 -3.03068213E-03  1.00000000E+00  1.00000000E+00
  1.00000000E+00  1.00000000E+00  2.54938145E-02  1.90373109E-01  8.52161486E-01
  1.00000000E+00  1.00000000E+00  1.00000000E+00  1.00000000E+00  2.54938145E-02
  1.90373109E-01  8.52161486E-01  1.00000000E+00  1.00000000E+00  1.00000000E+00
  1.00000000E+00  2.54938145E-02  1.90373109E-01  8.52161486E-01  1.00000000E+00
  1.00000000E+00  1.00000000E+00  1.00000000E+00  2.54938145E-02  1.90373109E-01
  8.52161486E-01  1.00000000E+00  1.00000000E+00  1.00000000E+00  1.00000000E+00
  2.54938145E-02  1.90373109E-01  8.52161486E-01  1.00000000E+00  1.00000000E+00
  1.00000000E+00  1.00000000E+00  2.54938145E-02  1.90373109E-01  8.52161486E-01
  1.00000000E+00  1.00000000E+00  1.00000000E+00  1.00000000E+00  2.54938145E-02
  1.90373109E-01  8.52161486E-01  1.00000000E+00  1.00000000E+00  1.00000000E+00
  1.00000000E+00  7.38000247E-04  5.71800191E-03  2.94950099E-02  1.17286039E-01
  3.62949121E-01  5.84149195E-01  1.34176973E-01  6.24249876E-01  2.91755942E-01
  1.00000000E+00  1.00000000E+00  1.00000000E+00  1.00000000E+00  1.00000000E+00
  3.66556935E-03  2.83679194E-02  1.24756603E-01  3.39654631E-01  7.47585963E-01
 -1.57224381E+00  9.92388882E-01  1.00000000E+00  1.00000000E+00  1.00000000E+00
  1.00000000E+00
P(S=P) Contraction coefficients            R   N=         126
  0.00000000E+00  0.00000000E+00  0.00000000E+00  0.00000000E+00  0.00000000E+00
  0.00000000E+00  4.02486927E-02  2.37593957E-01  8.15853851E-01  1.00000000E+00
  1.00000000E+00  1.00000000E+00  0.00000000E+00  0.00000000E+00  0.00000000E+00
  0.00000000E+00  0.00000000E+00  0.00000000E+00  0.00000000E+00  4.02486927E-02
  2.37593957E-01  8.15853851E-01  1.00000000E+00  1.00000000E+00  1.00000000E+00
  0.00000000E+00  0.00000000E+00  0.00000000E+00  0.00000000E+00  0.00000000E+00
  0.00000000E+00  0.00000000E+00  4.02486927E-02  2.37593957E-01  8.15853851E-01
  1.00000000E+00  1.00000000E+00  1.00000000E+00  0.00000000E+00  0.00000000E+00
  0.00000000E+00  0.00000000E+00  0.00000000E+00  0.00000000E+00  0.00000000E+00
  4.02486927E-02  2.37593957E-01  8.15853851E-01  1.00000000E+00  1.00000000E+00
  1.00000000E+00  0.00000000E+00  0.00000000E+00  0.00000000E+00  0.00000000E+00
  0.00000000E+00  0.00000000E+00  0.00000000E+00  0.00000000E+00  0.00000000E+00
  0.00000000E+00  0.00000000E+00  0.00000000E+00  0.00000000E+00  0.00000000E+00
  0.00000000E+00  0.00000000E+00  0.00000000E+00  0.00000000E+00  0.00000000E+00
  0.00000000E+00  0.00000000E+00  0.00000000E+00  0.00000000E+00  0.00000000E+00
  0.00000000E+00  0.00000000E+00  0.00000000E+00  0.00000000E+00  0.00000000E+00
  0.00000000E+00  0.00000000E+00  0.00000000E+00  0.00000000E+00  0.00000000E+00
  0.00000000E+00  0.00000000E+00  0.00000000E+00  0.00000000E+00  0.00000000E+00
  0.00000000E+00  0.00000000E+00  0.00000000E+00  0.00000000E+00  0.00000000E+00
  0.00000000E+00  0.00000000E+00  0.00000000E+00  0.00000000E+00  0.00000000E+00
  0.00000000E+00  0.00000000E+00  0.00000000E+00  0.00000000E+00  0.00000000E+00
  0.00000000E+00  0.00000000E+00  0.00000000E+00  0.00000000E+00  0.00000000E+00
  0.00000000E+00  0.00000000E+00  0.00000000E+00  0.00000000E+00  1.00000000E+00
  0.00000000E+00  0.00000000E+00  0.00000000E+00  0.00000000E+00  0.00000000E+00
  0.00000000E+00  0.00000000E+00  0.00000000E+00  0.00000000E+00  0.00000000E+00
  0.00000000E+00
Coordinates of each shell                  R   N=         216
  8.89664051E-01  3.31124089E+00  7.13650223E-02  8.89664051E-01  3.31124089E+00
  7.13650223E-02  8.89664051E-01  3.31124089E+00  7.13650223E-02  8.89664051E-01
  3.31124089E+00  7.13650223E-02  8.89664051E-01  3.31124089E+00  7.13650223E-02
  8.89664051E-01  3.31124089E+00  7.13650223E-02  2.86046214E-02  6.80143471E-01
 -6.21583320E-01  2.86046214E-02  6.80143471E-01 -6.21583320E-01  2.86046214E-02
  6.80143471E-01 -6.21583320E-01  2.86046214E-02  6.80143471E-01 -6.21583320E-01
  2.86046214E-02  6.80143471E-01 -6.21583320E-01  2.86046214E-02  6.80143471E-01
 -6.21583320E-01 -2.26550225E+00 -1.70964202E-01  8.23403070E-01 -2.26550225E+00
 -1.70964202E-01  8.23403070E-01 -2.26550225E+00 -1.70964202E-01  8.23403070E-01
 -2.26550225E+00 -1.70964202E-01  8.23403070E-01 -2.26550225E+00 -1.70964202E-01
  8.23403070E-01 -2.26550225E+00 -1.70964202E-01  8.23403070E-01 -4.41957192E+00
 -9.36122917E-01 -2.83781907E-01 -4.41957192E+00 -9.36122917E-01 -2.83781907E-01
 -4.41957192E+00 -9.36122917E-01 -2.83781907E-01 -4.41957192E+00 -9.36122917E-01
 -2.83781907E-01 -4.41957192E+00 -9.36122917E-01 -2.83781907E-01 -4.41957192E+00
 -9.36122917E-01 -2.83781907E-01 -4.66092653E+00 -1.06830386E+00 -2.32059579E+00
 -4.66092653E+00 -1.06830386E+00 -2.32059579E+00 -4.66092653E+00 -1.06830386E+00
 -2.32059579E+00 -4.66092653E+00 -1.06830386E+00 -2.32059579E+00 -4.66092653E+00
 -1.06830386E+00 -2.32059579E+00  2.58189844E+00  3.78395624E+00 -1.00926035E+00
  2.58189844E+00  3.78395624E+00 -1.00926035E+00  2.58189844E+00  3.78395624E+00
 -1.00926035E+00  2.58189844E+00  3.78395624E+00 -1.00926035E+00  2.58189844E+00
  3.78395624E+00 -1.00926035E+00 -6.07454840E+00 -1.48338891E+00  7.96689282E-01
 -6.07454840E+00 -1.48338891E+00  7.96689282E-01 -6.07454840E+00 -1.48338891E+00
  7.96689282E-01 -6.07454840E+00 -1.48338891E+00  7.96689282E-01 -6.07454840E+00
 -1.48338891E+00  7.96689282E-01 -2.05965512E+00 -7.66166689E-02  2.86815166E+00
 -2.05965512E+00 -7.66166689E-02  2.86815166E+00 -2.05965512E+00 -7.66166689E-02
  2.86815166E+00 -2.05965512E+00 -7.66166689E-02  2.86815166E+00 -2.05965512E+00
 -7.66166689E-02  2.86815166E+00 -4.03403925E-01  3.45714140E-01 -2.61599416E+00
 -4.03403925E-01  3.45714140E-01 -2.61599416E+00 -4.03403925E-01  3.45714140E-01
 -2.61599416E+00 -4.03403925E-01  3.45714140E-01 -2.61599416E+00 -4.03403925E-01
  3.45714140E-01 -2.61599416E+00  1.31166248E+00  3.48728550E+00  2.08337524E+00
  1.31166248E+00  3.48728550E+00  2.08337524E+00  1.31166248E+00  3.48728550E+00
  2.08337524E+00  1.31166248E+00  3.48728550E+00  2.08337524E+00  1.31166248E+00
  3.48728550E+00  2.08337524E+00 -5.91039989E-01  4.65551972E+00 -4.54416715E-01
 -5.91039989E-01  4.65551972E+00 -4.54416715E-01 -5.91039989E-01  4.65551972E+00
 -4.54416715E-01 -5.91039989E-01  4.65551972E+00 -4.54416715E-01 -5.91039989E-01
  4.65551972E+00 -4.54416715E-01  2.61746153E+00 -1.58529115E+00  4.20960969E-02
  2.61746153E+00 -1.58529115E+00  4.20960969E-02  2.61746153E+00 -1.58529115E+00
  4.20960969E-02  2.61746153E+00 -1.58529115E+00  4.20960969E-02  2.61746153E+00
 -1.58529115E+00  4.20960969E-02  2.61746153E+00 -1.58529115E+00  4.20960969E-02
  2.61746153E+00 -1.58529115E+00  4.20960969E-02  2.61746153E+00 -1.58529115E+00
  4.20960969E-02  2.61746153E+00 -1.58529115E+00  4.20960969E-02  2.61746153E+00
 -1.58529115E+00  4.20960969E-02  2.61746153E+00 -1.58529115E+00  4.20960969E-02
  2.61746153E+00 -1.58529115E+00  4.20960969E-02  2.61746153E+00 -1.58529115E+00
  4.20960969E-02
Constraint Structure                       R   N=          36
  8.89664051E-01  3.31124089E+00  7.13650223E-02  2.86046214E-02  6.80143471E-01
 -6.21583320E-01 -2.26550225E+00 -1.70964202E-01  8.23403070E-01 -4.41957192E+00
 -9.36122917E-01 -2.83781907E-01 -4.66092653E+00 -1.06830386E+00 -2.32059579E+00
  2.58189844E+00  3.78395624E+00 -1.00926035E+00 -6.07454840E+00 -1.48338891E+00
  7.96689282E-01 -2.05965512E+00 -7.66166689E-02  2.86815166E+00 -4.03403925E-01
  3.45714140E-01 -2.61599416E+00  1.31166248E+00  3.48728550E+00  2.08337524E+00
 -5.91039989E-01  4.65551972E+00 -4.54416715E-01  2.61746153E+00 -1.58529115E+00
  4.20960969E-02
Num ILSW                                   I              100
ILSW                                       I   N=         100
           0           0           0           0           2           0
           0           0           0           0         402          -1
           5           0           0           0           0           0
           0           0           0           0           0           0
           1           0           0           0           0           0
           0           0      100000           0          -1           0
           0           0           0           0           0           0
           0           0           0           1           0           0
           0           0           1           0           0           0
           0           0           4          41           0           0
           0           0           5           0           0           0
           0           0           0           0           0           0
           0           0           0           0           0           0
           0           0           0           0           0           0
           0           0           0           0           0           0
           0           0           0           0           0           0
           0           0           0           0
Num RLSW                                   I               41
RLSW                                       R   N=          41
  8.00000000E-01  7.20000000E-01  1.00000000E+00  8.10000000E-01  2.00000000E-01
  0.00000000E+00  0.00000000E+00  1.00000000E+00  0.00000000E+00  0.00000000E+00
  0.00000000E+00  0.00000000E+00  1.00000000E+00  0.00000000E+00  0.00000000E+00
  0.00000000E+00  0.00000000E+00  1.00000000E+00  0.00000000E+00  0.00000000E+00
  0.00000000E+00  0.00000000E+00  1.00000000E+00  0.00000000E+00  0.00000000E+00
  0.00000000E+00  0.00000000E+00  1.00000000E+00  0.00000000E+00  0.00000000E+00
  0.00000000E+00  0.00000000E+00  0.00000000E+00  0.00000000E+00  0.00000000E+00
  0.00000000E+00  0.00000000E+00  0.00000000E+00  1.00000000E+00  1.00000000E+00
  0.00000000E+00
MxBond                                     I                4
NBond                                      I   N=          12
           4           4           3           3           1           1
           1           1           1           1           1           1
IBond                                      I   N=          48
           2           6          10          11           1           3
           9          12           2           4           8           0
           3           5           7           0           4           0
           0           0           1           0           0           0
           4           0           0           0           3           0
           0           0           2           0           0           0
           1           0           0           0           1           0
           0           0           2           0           0           0
RBond                                      R   N=          48
  1.00000000E+00  1.00000000E+00  1.00000000E+00  1.00000000E+00  1.00000000E+00
  1.00000000E+00  1.00000000E+00  1.00000000E+00  1.00000000E+00  2.00000000E+00
  1.00000000E+00  0.00000000E+00  2.00000000E+00  1.00000000E+00  1.00000000E+00
  0.00000000E+00  1.00000000E+00  0.00000000E+00  0.00000000E+00  0.00000000E+00
  1.00000000E+00  0.00000000E+00  0.00000000E+00  0.00000000E+00  1.00000000E+00
  0.00000000E+00  0.00000000E+00  0.00000000E+00  1.00000000E+00  0.00000000E+00
  0.00000000E+00  0.00000000E+00  1.00000000E+00  0.00000000E+00  0.00000000E+00
  0.00000000E+00  1.00000000E+00  0.00000000E+00  0.00000000E+00  0.00000000E+00
  1.00000000E+00  0.00000000E+00  0.00000000E+00  0.00000000E+00  1.00000000E+00
  0.00000000E+00  0.00000000E+00  0.00000000E+00
Virial Ratio                               R      2.003128385493215E+00
SCF Energy                                 R     -6.168937582510553E+02
Total Energy                               R     -6.168937582510553E+02
RMS Density                                R      9.256726062643072E-12
Nuclear derivative order                   I                0
External E-field                           R   N=          35
  0.00000000E+00  0.00000000E+00  0.00000000E+00  0.00000000E+00  0.00000000E+00
  0.00000000E+00  0.00000000E+00  0.00000000E+00  0.00000000E+00  0.00000000E+00
  0.00000000E+00  0.00000000E+00  0.00000000E+00  0.00000000E+00  0.00000000E+00
  0.00000000E+00  0.00000000E+00  0.00000000E+00  0.00000000E+00  0.00000000E+00
  0.00000000E+00  0.00000000E+00  0.00000000E+00  0.00000000E+00  0.00000000E+00
  0.00000000E+00  0.00000000E+00  0.00000000E+00  0.00000000E+00  0.00000000E+00
  0.00000000E+00  0.00000000E+00  0.00000000E+00  0.00000000E+00  0.00000000E+00
IOpCl                                      I                0
IROHF                                      I                0
Alpha Orbital Energies                     R   N=         167
 -1.01533878E+02 -1.02477294E+01 -1.01962218E+01 -1.01862171E+01 -1.01825630E+01
 -9.44833681E+00 -7.21265072E+00 -7.20325673E+00 -7.20310781E+00 -8.67668187E-01
 -7.84189108E-01 -7.43136549E-01 -6.40738254E-01 -5.77395079E-01 -4.87293601E-01
 -4.71387420E-01 -4.45691583E-01 -4.19983933E-01 -4.04993814E-01 -3.76180595E-01
 -3.63680197E-01 -3.04759410E-01 -2.99554580E-01 -2.78169151E-01 -3.37338075E-02
 -7.66181866E-03  5.75915906E-03  8.02468304E-03  2.09574636E-02  2.81466952E-02
  3.87119048E-02  4.06390631E-02  6.41966163E-02  6.50225409E-02  7.24631299E-02
  8.28978807E-02  8.75177051E-02  9.87191748E-02  1.10337560E-01  1.15634037E-01
  1.17905585E-01  1.22616642E-01  1.28997986E-01  1.30509386E-01  1.34398874E-01
  1.40681531E-01  1.50625676E-01  1.57405942E-01  1.59621561E-01  1.64736810E-01
  1.71008229E-01  1.87827494E-01  1.91176916E-01  2.12745045E-01  2.20316643E-01
  2.26971749E-01  2.46409345E-01  2.61616406E-01  2.70601960E-01  2.91156704E-01
  3.36480708E-01  3.53546094E-01  3.86718005E-01  4.23810897E-01  4.30303499E-01
  4.50272844E-01  4.58590653E-01  4.79902638E-01  4.87520889E-01  4.95626897E-01
  5.25304776E-01  5.29689024E-01  5.66567235E-01  5.87424813E-01  6.00152922E-01
  6.24510423E-01  6.34882256E-01  6.40723558E-01  6.57166316E-01  6.59283227E-01
  6.89944548E-01  7.03739222E-01  7.29189141E-01  7.33397453E-01  7.81693806E-01
  8.14856530E-01  8.28713743E-01  8.62245798E-01  8.88620148E-01  8.99278215E-01
  9.41151016E-01  9.60956701E-01  1.00532812E+00  1.03861060E+00  1.06829139E+00
  1.08577030E+00  1.12188907E+00  1.19166303E+00  1.19968686E+00  1.27412753E+00
  1.39626126E+00  1.44263454E+00  1.45169502E+00  1.47276512E+00  1.50847910E+00
  1.54893262E+00  1.55708534E+00  1.57749241E+00  1.58816223E+00  1.62110025E+00
  1.66496377E+00  1.69152015E+00  1.69510513E+00  1.71739309E+00  1.76627322E+00
  1.78394023E+00  1.86648801E+00  1.88753150E+00  1.93372812E+00  1.98912509E+00
  2.02529359E+00  2.06300305E+00  2.11677922E+00  2.17373199E+00  2.18477702E+00
  2.21108064E+00  2.24664345E+00  2.29701613E+00  2.31167524E+00  2.35455272E+00
  2.36819387E+00  2.45390850E+00  2.46124917E+00  2.49118416E+00  2.52558791E+00
  2.56350263E+00  2.58001785E+00  2.58739126E+00  2.61339267E+00  2.64619847E+00
  2.72435387E+00  2.72998558E+00  2.74145888E+00  2.76999420E+00  2.85463855E+00
  2.86385031E+00  2.92621468E+00  3.06050923E+00  3.07772003E+00  3.18429398E+00
  3.39685192E+00  3.48647824E+00  3.71298959E+00  3.79461695E+00  3.80231369E+00
  3.93620361E+00  4.14001425E+00  4.26938883E+00  9.75615645E+00  2.37215331E+01
  2.37889415E+01  2.39475200E+01  2.42082965E+01  2.59263117E+01  2.59865041E+01
  2.64480177E+01  2.15746032E+02
Alpha MO coefficients                      R   N=       27889
  1.43276681E-07 -2.93854294E-07 -2.69584619E-06 -2.05607574E-06 -9.33175195E-07
 -2.66702824E-07  2.01256846E-05  1.49082315E-05  8.60887590E-06  3.01977933E-05
  3.91945702E-05  2.08962029E-05  1.59158995E-05 -1.72848609E-03 -1.45772248E-04
  5.15192338E-04  3.30539775E-05  8.35368735E-06 -3.53323827E-06 -3.00392639E-06
  1.32757831E-05  6.37147816E-08  1.46673078E-06 -3.03888191E-06  1.22329719E-05
 -1.20004095E-05  5.40132383E-06 -1.57637633E-05 -1.42080123E-05  1.97713578E-05
 -1.89895007E-05  1.75336535E-04  1.08682911E-04 -1.43757007E-04  5.33152461E-07
  3.65201801E-03 -4.77538531E-04  4.73156413E-04  8.27093563E-04  7.40818322E-06
  4.48269096E-07  6.24134412E-06 -1.54880221E-06  8.35795585E-06 -5.81886521E-07
  1.71206805E-06  3.98760423E-06 -2.49372851E-06 -4.71546442E-06 -8.39425866E-06
 -2.39248766E-05  9.64020109E-06  2.75015513E-05  2.22279273E-06  7.87121260E-06
 -8.99557333E-06 -4.49781634E-05 -1.10504529E-03 -1.18551399E-03 -3.74112651E-04
 -7.92455135E-05  6.11717310E-06  7.16548709E-06 -5.67768014E-06  1.47868895E-06
 -3.74966586E-06  3.03117899E-07 -9.04892367E-07 -1.61257699E-06  7.00767350E-07
  5.16068228E-07  9.34636171E-06  7.48931785E-06 -2.55643016E-06  1.64761992E-06
 -4.81079726E-05 -7.41279659E-05 -1.72219685E-05  5.13289197E-05 -1.60866185E-03
 -3.22919649E-04 -1.72923173E-04 -1.35595787E-04 -4.70981781E-06 -2.12063816E-06
 -3.86457189E-06 -1.57583006E-06 -1.65457331E-06 -2.52938075E-06  2.94934093E-05
  5.41351145E-05  3.04195273E-05  6.81034617E-06 -8.99149381E-08  5.72613846E-06
  1.23003017E-05 -8.62902552E-05  8.16775087E-05  2.33130661E-04  8.01625199E-06
  1.28812289E-05 -1.15312635E-05  1.96766978E-06 -1.89686750E-05 -4.00968454E-05
 -1.11759564E-04 -1.02782546E-06 -2.11540513E-07  1.19490839E-06  6.49742983E-06
 -4.10724603E-05  5.76603855E-05  1.32439337E-04 -1.11422570E-05  1.79986142E-06
  1.46583184E-05 -1.18251144E-06 -6.11463849E-05 -1.07761868E-04  1.32403271E-04
 -5.74591782E-06  2.58653936E-06 -1.55396172E-05  1.05095520E-05 -6.58379251E-05
 -6.46935573E-06  8.33214266E-05 -4.64471525E-06  1.25997364E-05  1.55401863E-05
 -8.01913192E-06  4.04353408E-05 -1.30933629E-04 -3.09622068E-04  6.15067517E-07
 -5.65505604E-06 -2.02506136E-07  4.11609634E-01  6.54076177E-01  1.50039776E-02