(R)-3-chloro-1-butene tau=120                                           
SP        RB3LYP                                                      6-311++G(d,p)       
Number of atoms                            I               12
Info1-9                                    I   N=           9
          26          26           0           0           0         110
           1          18        -502
Full Title                                 C   N=           3
(R)-3-chloro-1-butene tau=120       
Route                                      C   N=           7
#P B3LYP/6-311++G** scf(conver=11) int=ultrafine polar=optro
t cphf(rdfreq,conver=11)
Charge                                     I                0
Multiplicity                               I                1
Number of electrons                        I               48
Number of alpha electrons                  I               24
Number of beta electrons                   I               24
Number of basis functions                  I              167
Number of independent functions            I              167
Number of point charges in /Mol/           I                0
Number of translation vectors              I                0
Atomic numbers                             I   N=          12
           6           6           6           6           1           1
           1           1           1           1           1          17
Nuclear charges                            R   N=          12
  6.00000000E+00  6.00000000E+00  6.00000000E+00  6.00000000E+00  1.00000000E+00
  1.00000000E+00  1.00000000E+00  1.00000000E+00  1.00000000E+00  1.00000000E+00
  1.00000000E+00  1.70000000E+01
Current cartesian coordinates              R   N=          36
  8.87556597E-01  3.32189372E+00  7.68466462E-02  1.14440016E-02  6.62382509E-01
 -6.12769505E-01 -2.27869186E+00 -1.80662652E-01  8.06695710E-01 -4.40848733E+00
 -9.37386171E-01 -2.94489906E-01 -4.58930407E+00 -1.03859996E+00 -2.33572906E+00
  2.54275105E+00  3.80516498E+00 -9.27537805E-01 -6.04506865E+00 -1.48642645E+00
  8.07613587E-01 -2.13247901E+00 -1.13297312E-01  2.85691020E+00 -2.93474440E-01
  4.88440878E-01 -2.64214833E+00  1.26449379E+00  3.45772305E+00  2.02460156E+00
 -5.28032793E-01  4.60370507E+00 -3.79053071E-01  2.61824621E+00 -1.58318086E+00
  4.33908970E-02
Number of symbols in /Mol/                 I                0
Force Field                                I                0
Atom Types                                 C   N=          12
                                                            
                                                            
                        
Int Atom Types                             I   N=          12
           0           0           0           0           0           0
           0           0           0           0           0           0
MM charges                                 R   N=          12
  0.00000000E+00  0.00000000E+00  0.00000000E+00  0.00000000E+00  0.00000000E+00
  0.00000000E+00  0.00000000E+00  0.00000000E+00  0.00000000E+00  0.00000000E+00
  0.00000000E+00  0.00000000E+00
Integer atomic weights                     I   N=          12
          12          12          12          12           1           1
           1           1           1           1           1          35
Real atomic weights                        R   N=          12
  1.20000000E+01  1.20000000E+01  1.20000000E+01  1.20000000E+01  1.00782504E+00
  1.00782504E+00  1.00782504E+00  1.00782504E+00  1.00782504E+00  1.00782504E+00
  1.00782504E+00  3.49688527E+01
Atom fragment info                         I   N=          12
           0           0           0           0           0           0
           0           0           0           0           0           0
Atom residue num                           I   N=          12
           0           0           0           0           0           0
           0           0           0           0           0           0
Nuclear spins                              I   N=          12
           0           0           0           0           1           1
           1           1           1           1           1           3
Nuclear ZEff                               R   N=          12
 -3.60000000E+00 -3.60000000E+00 -3.60000000E+00 -3.60000000E+00 -1.00000000E+00
 -1.00000000E+00 -1.00000000E+00 -1.00000000E+00 -1.00000000E+00 -1.00000000E+00
 -1.00000000E+00 -1.42400000E+01
Nuclear ZNuc                               R   N=          12
  6.00000000E+00  6.00000000E+00  6.00000000E+00  6.00000000E+00  1.00000000E+00
  1.00000000E+00  1.00000000E+00  1.00000000E+00  1.00000000E+00  1.00000000E+00
  1.00000000E+00  1.70000000E+01
Nuclear QMom                               R   N=          12
  0.00000000E+00  0.00000000E+00  0.00000000E+00  0.00000000E+00  0.00000000E+00
  0.00000000E+00  0.00000000E+00  0.00000000E+00  0.00000000E+00  0.00000000E+00
  0.00000000E+00 -8.16500000E+00
Nuclear GFac                               R   N=          12
  0.00000000E+00  0.00000000E+00  0.00000000E+00  0.00000000E+00  2.79284600E+00
  2.79284600E+00  2.79284600E+00  2.79284600E+00  2.79284600E+00  2.79284600E+00
  2.79284600E+00  8.21874000E-01
MicOpt                                     I   N=          12
          -1          -1          -1          -1          -1          -1
          -1          -1          -1          -1          -1          -1
Number of residues                         I                0
Number of secondary structures             I                0
SymInf integers                            I   N=          26
           1           1           1           1           1           0
           0           0           0           0           0           0
           0           0           0           0           0           0
           0           0           0           0           0           0
           0           0
RotTr to input orientation                 R   N=          12
  9.99999808E-01  6.19133291E-04  0.00000000E+00 -6.19133291E-04  9.99999808E-01
  0.00000000E+00  0.00000000E+00  0.00000000E+00  1.00000000E+00  4.49065857E-05
 -8.48240582E-04 -1.49011992E-04
Number of contracted shells                I               72
Number of primitive shells                 I              126
Pure/Cartesian d shells                    I                0
Pure/Cartesian f shells                    I                0
Highest angular momentum                   I                2
Largest degree of contraction              I                6
Shell types                                I   N=          72
           0          -1          -1          -1          -1          -2
           0          -1          -1          -1          -1          -2
           0          -1          -1          -1          -1          -2
           0          -1          -1          -1          -1          -2
           0           0           0           0           1           0
           0           0           0           1           0           0
           0           0           1           0           0           0
           0           1           0           0           0           0
           1           0           0           0           0           1
           0           0           0           0           1           0
           0           0           0           0           0          -1
           1           1           1           1           1          -2
Number of primitives per shell             I   N=          72
           6           3           1           1           1           1
           6           3           1           1           1           1
           6           3           1           1           1           1
           6           3           1           1           1           1
           3           1           1           1           1           3
           1           1           1           1           3           1
           1           1           1           3           1           1
           1           1           3           1           1           1
           1           3           1           1           1           1
           3           1           1           1           1           6
           3           1           1           1           1           1
           5           2           1           1           1           1
Shell to atom map                          I   N=          72
           1           1           1           1           1           1
           2           2           2           2           2           2
           3           3           3           3           3           3
           4           4           4           4           4           4
           5           5           5           5           5           6
           6           6           6           6           7           7
           7           7           7           8           8           8
           8           8           9           9           9           9
           9          10          10          10          10          10
          11          11          11          11          11          12
          12          12          12          12          12          12
          12          12          12          12          12          12
Primitive exponents                        R   N=         126
  4.56324000E+03  6.82024000E+02  1.54973000E+02  4.44553000E+01  1.30290000E+01
  1.82773000E+00  2.09642000E+01  4.80331000E+00  1.45933000E+00  4.83456000E-01
  1.45585000E-01  4.38000000E-02  6.26000000E-01  4.56324000E+03  6.82024000E+02
  1.54973000E+02  4.44553000E+01  1.30290000E+01  1.82773000E+00  2.09642000E+01
  4.80331000E+00  1.45933000E+00  4.83456000E-01  1.45585000E-01  4.38000000E-02
  6.26000000E-01  4.56324000E+03  6.82024000E+02  1.54973000E+02  4.44553000E+01
  1.30290000E+01  1.82773000E+00  2.09642000E+01  4.80331000E+00  1.45933000E+00
  4.83456000E-01  1.45585000E-01  4.38000000E-02  6.26000000E-01  4.56324000E+03
  6.82024000E+02  1.54973000E+02  4.44553000E+01  1.30290000E+01  1.82773000E+00
  2.09642000E+01  4.80331000E+00  1.45933000E+00  4.83456000E-01  1.45585000E-01
  4.38000000E-02  6.26000000E-01  3.38650000E+01  5.09479000E+00  1.15879000E+00
  3.25840000E-01  1.02741000E-01  3.60000000E-02  7.50000000E-01  3.38650000E+01
  5.09479000E+00  1.15879000E+00  3.25840000E-01  1.02741000E-01  3.60000000E-02
  7.50000000E-01  3.38650000E+01  5.09479000E+00  1.15879000E+00  3.25840000E-01
  1.02741000E-01  3.60000000E-02  7.50000000E-01  3.38650000E+01  5.09479000E+00
  1.15879000E+00  3.25840000E-01  1.02741000E-01  3.60000000E-02  7.50000000E-01
  3.38650000E+01  5.09479000E+00  1.15879000E+00  3.25840000E-01  1.02741000E-01
  3.60000000E-02  7.50000000E-01  3.38650000E+01  5.09479000E+00  1.15879000E+00
  3.25840000E-01  1.02741000E-01  3.60000000E-02  7.50000000E-01  3.38650000E+01
  5.09479000E+00  1.15879000E+00  3.25840000E-01  1.02741000E-01  3.60000000E-02
  7.50000000E-01  1.05819000E+05  1.58720000E+04  3.61965000E+03  1.03080000E+03
  3.39908000E+02  1.24538000E+02  1.24538000E+02  4.95135000E+01  2.08056000E+01
  6.58346000E+00  2.56468000E+00  5.59763000E-01  1.83273000E-01  4.83000000E-02
  5.89776000E+02  1.39849000E+02  4.51413000E+01  1.68733000E+01  2.77152000E+00
  6.74110000E+00  2.77152000E+00  1.02387000E+00  3.81368000E-01  1.09437000E-01
  7.50000000E-01
Contraction coefficients                   R   N=         126
  1.96665025E-03  1.52306019E-02  7.61269097E-02  2.60801033E-01  6.16462078E-01
  2.21006028E-01  1.14660081E-01  9.19999648E-01 -3.03068213E-03  1.00000000E+00
  1.00000000E+00  1.00000000E+00  1.00000000E+00  1.96665025E-03  1.52306019E-02
  7.61269097E-02  2.60801033E-01  6.16462078E-01  2.21006028E-01  1.14660081E-01
  9.19999648E-01 -3.03068213E-03  1.00000000E+00  1.00000000E+00  1.00000000E+00
  1.00000000E+00  1.96665025E-03  1.52306019E-02  7.61269097E-02  2.60801033E-01
  6.16462078E-01  2.21006028E-01  1.14660081E-01  9.19999648E-01 -3.03068213E-03
  1.00000000E+00  1.00000000E+00  1.00000000E+00  1.00000000E+00  1.96665025E-03
  1.52306019E-02  7.61269097E-02  2.60801033E-01  6.16462078E-01  2.21006028E-01
  1.14660081E-01  9.19999648E-01 -3.03068213E-03  1.00000000E+00  1.00000000E+00
  1.00000000E+00  1.00000000E+00  2.54938145E-02  1.90373109E-01  8.52161486E-01
  1.00000000E+00  1.00000000E+00  1.00000000E+00  1.00000000E+00  2.54938145E-02
  1.90373109E-01  8.52161486E-01  1.00000000E+00  1.00000000E+00  1.00000000E+00
  1.00000000E+00  2.54938145E-02  1.90373109E-01  8.52161486E-01  1.00000000E+00
  1.00000000E+00  1.00000000E+00  1.00000000E+00  2.54938145E-02  1.90373109E-01
  8.52161486E-01  1.00000000E+00  1.00000000E+00  1.00000000E+00  1.00000000E+00
  2.54938145E-02  1.90373109E-01  8.52161486E-01  1.00000000E+00  1.00000000E+00
  1.00000000E+00  1.00000000E+00  2.54938145E-02  1.90373109E-01  8.52161486E-01
  1.00000000E+00  1.00000000E+00  1.00000000E+00  1.00000000E+00  2.54938145E-02
  1.90373109E-01  8.52161486E-01  1.00000000E+00  1.00000000E+00  1.00000000E+00
  1.00000000E+00  7.38000247E-04  5.71800191E-03  2.94950099E-02  1.17286039E-01
  3.62949121E-01  5.84149195E-01  1.34176973E-01  6.24249876E-01  2.91755942E-01
  1.00000000E+00  1.00000000E+00  1.00000000E+00  1.00000000E+00  1.00000000E+00
  3.66556935E-03  2.83679194E-02  1.24756603E-01  3.39654631E-01  7.47585963E-01
 -1.57224381E+00  9.92388882E-01  1.00000000E+00  1.00000000E+00  1.00000000E+00
  1.00000000E+00
P(S=P) Contraction coefficients            R   N=         126
  0.00000000E+00  0.00000000E+00  0.00000000E+00  0.00000000E+00  0.00000000E+00
  0.00000000E+00  4.02486927E-02  2.37593957E-01  8.15853851E-01  1.00000000E+00
  1.00000000E+00  1.00000000E+00  0.00000000E+00  0.00000000E+00  0.00000000E+00
  0.00000000E+00  0.00000000E+00  0.00000000E+00  0.00000000E+00  4.02486927E-02
  2.37593957E-01  8.15853851E-01  1.00000000E+00  1.00000000E+00  1.00000000E+00
  0.00000000E+00  0.00000000E+00  0.00000000E+00  0.00000000E+00  0.00000000E+00
  0.00000000E+00  0.00000000E+00  4.02486927E-02  2.37593957E-01  8.15853851E-01
  1.00000000E+00  1.00000000E+00  1.00000000E+00  0.00000000E+00  0.00000000E+00
  0.00000000E+00  0.00000000E+00  0.00000000E+00  0.00000000E+00  0.00000000E+00
  4.02486927E-02  2.37593957E-01  8.15853851E-01  1.00000000E+00  1.00000000E+00
  1.00000000E+00  0.00000000E+00  0.00000000E+00  0.00000000E+00  0.00000000E+00
  0.00000000E+00  0.00000000E+00  0.00000000E+00  0.00000000E+00  0.00000000E+00
  0.00000000E+00  0.00000000E+00  0.00000000E+00  0.00000000E+00  0.00000000E+00
  0.00000000E+00  0.00000000E+00  0.00000000E+00  0.00000000E+00  0.00000000E+00
  0.00000000E+00  0.00000000E+00  0.00000000E+00  0.00000000E+00  0.00000000E+00
  0.00000000E+00  0.00000000E+00  0.00000000E+00  0.00000000E+00  0.00000000E+00
  0.00000000E+00  0.00000000E+00  0.00000000E+00  0.00000000E+00  0.00000000E+00
  0.00000000E+00  0.00000000E+00  0.00000000E+00  0.00000000E+00  0.00000000E+00
  0.00000000E+00  0.00000000E+00  0.00000000E+00  0.00000000E+00  0.00000000E+00
  0.00000000E+00  0.00000000E+00  0.00000000E+00  0.00000000E+00  0.00000000E+00
  0.00000000E+00  0.00000000E+00  0.00000000E+00  0.00000000E+00  0.00000000E+00
  0.00000000E+00  0.00000000E+00  0.00000000E+00  0.00000000E+00  0.00000000E+00
  0.00000000E+00  0.00000000E+00  0.00000000E+00  0.00000000E+00  1.00000000E+00
  0.00000000E+00  0.00000000E+00  0.00000000E+00  0.00000000E+00  0.00000000E+00
  0.00000000E+00  0.00000000E+00  0.00000000E+00  0.00000000E+00  0.00000000E+00
  0.00000000E+00
Coordinates of each shell                  R   N=         216
  8.87556597E-01  3.32189372E+00  7.68466462E-02  8.87556597E-01  3.32189372E+00
  7.68466462E-02  8.87556597E-01  3.32189372E+00  7.68466462E-02  8.87556597E-01
  3.32189372E+00  7.68466462E-02  8.87556597E-01  3.32189372E+00  7.68466462E-02
  8.87556597E-01  3.32189372E+00  7.68466462E-02  1.14440016E-02  6.62382509E-01
 -6.12769505E-01  1.14440016E-02  6.62382509E-01 -6.12769505E-01  1.14440016E-02
  6.62382509E-01 -6.12769505E-01  1.14440016E-02  6.62382509E-01 -6.12769505E-01
  1.14440016E-02  6.62382509E-01 -6.12769505E-01  1.14440016E-02  6.62382509E-01
 -6.12769505E-01 -2.27869186E+00 -1.80662652E-01  8.06695710E-01 -2.27869186E+00
 -1.80662652E-01  8.06695710E-01 -2.27869186E+00 -1.80662652E-01  8.06695710E-01
 -2.27869186E+00 -1.80662652E-01  8.06695710E-01 -2.27869186E+00 -1.80662652E-01
  8.06695710E-01 -2.27869186E+00 -1.80662652E-01  8.06695710E-01 -4.40848733E+00
 -9.37386171E-01 -2.94489906E-01 -4.40848733E+00 -9.37386171E-01 -2.94489906E-01
 -4.40848733E+00 -9.37386171E-01 -2.94489906E-01 -4.40848733E+00 -9.37386171E-01
 -2.94489906E-01 -4.40848733E+00 -9.37386171E-01 -2.94489906E-01 -4.40848733E+00
 -9.37386171E-01 -2.94489906E-01 -4.58930407E+00 -1.03859996E+00 -2.33572906E+00
 -4.58930407E+00 -1.03859996E+00 -2.33572906E+00 -4.58930407E+00 -1.03859996E+00
 -2.33572906E+00 -4.58930407E+00 -1.03859996E+00 -2.33572906E+00 -4.58930407E+00
 -1.03859996E+00 -2.33572906E+00  2.54275105E+00  3.80516498E+00 -9.27537805E-01
  2.54275105E+00  3.80516498E+00 -9.27537805E-01  2.54275105E+00  3.80516498E+00
 -9.27537805E-01  2.54275105E+00  3.80516498E+00 -9.27537805E-01  2.54275105E+00
  3.80516498E+00 -9.27537805E-01 -6.04506865E+00 -1.48642645E+00  8.07613587E-01
 -6.04506865E+00 -1.48642645E+00  8.07613587E-01 -6.04506865E+00 -1.48642645E+00
  8.07613587E-01 -6.04506865E+00 -1.48642645E+00  8.07613587E-01 -6.04506865E+00
 -1.48642645E+00  8.07613587E-01 -2.13247901E+00 -1.13297312E-01  2.85691020E+00
 -2.13247901E+00 -1.13297312E-01  2.85691020E+00 -2.13247901E+00 -1.13297312E-01
  2.85691020E+00 -2.13247901E+00 -1.13297312E-01  2.85691020E+00 -2.13247901E+00
 -1.13297312E-01  2.85691020E+00 -2.93474440E-01  4.88440878E-01 -2.64214833E+00
 -2.93474440E-01  4.88440878E-01 -2.64214833E+00 -2.93474440E-01  4.88440878E-01
 -2.64214833E+00 -2.93474440E-01  4.88440878E-01 -2.64214833E+00 -2.93474440E-01
  4.88440878E-01 -2.64214833E+00  1.26449379E+00  3.45772305E+00  2.02460156E+00
  1.26449379E+00  3.45772305E+00  2.02460156E+00  1.26449379E+00  3.45772305E+00
  2.02460156E+00  1.26449379E+00  3.45772305E+00  2.02460156E+00  1.26449379E+00
  3.45772305E+00  2.02460156E+00 -5.28032793E-01  4.60370507E+00 -3.79053071E-01
 -5.28032793E-01  4.60370507E+00 -3.79053071E-01 -5.28032793E-01  4.60370507E+00
 -3.79053071E-01 -5.28032793E-01  4.60370507E+00 -3.79053071E-01 -5.28032793E-01
  4.60370507E+00 -3.79053071E-01  2.61824621E+00 -1.58318086E+00  4.33908970E-02
  2.61824621E+00 -1.58318086E+00  4.33908970E-02  2.61824621E+00 -1.58318086E+00
  4.33908970E-02  2.61824621E+00 -1.58318086E+00  4.33908970E-02  2.61824621E+00
 -1.58318086E+00  4.33908970E-02  2.61824621E+00 -1.58318086E+00  4.33908970E-02
  2.61824621E+00 -1.58318086E+00  4.33908970E-02  2.61824621E+00 -1.58318086E+00
  4.33908970E-02  2.61824621E+00 -1.58318086E+00  4.33908970E-02  2.61824621E+00
 -1.58318086E+00  4.33908970E-02  2.61824621E+00 -1.58318086E+00  4.33908970E-02
  2.61824621E+00 -1.58318086E+00  4.33908970E-02  2.61824621E+00 -1.58318086E+00
  4.33908970E-02
Constraint Structure                       R   N=          36
  8.87556597E-01  3.32189372E+00  7.68466462E-02  1.14440016E-02  6.62382509E-01
 -6.12769505E-01 -2.27869186E+00 -1.80662652E-01  8.06695710E-01 -4.40848733E+00
 -9.37386171E-01 -2.94489906E-01 -4.58930407E+00 -1.03859996E+00 -2.33572906E+00
  2.54275105E+00  3.80516498E+00 -9.27537805E-01 -6.04506865E+00 -1.48642645E+00
  8.07613587E-01 -2.13247901E+00 -1.13297312E-01  2.85691020E+00 -2.93474440E-01
  4.88440878E-01 -2.64214833E+00  1.26449379E+00  3.45772305E+00  2.02460156E+00
 -5.28032793E-01  4.60370507E+00 -3.79053071E-01  2.61824621E+00 -1.58318086E+00
  4.33908970E-02
Num ILSW                                   I              100
ILSW                                       I   N=         100
           0           0           0           0           2           0
           0           0           0           0         402          -1
           5           0           0           0           0           0
           0           0           0           0           0           0
           1           0           0           0           0           0
           0           0      100000           0          -1           0
           0           0           0           0           0           0
           0           0           0           1           0           0
           0           0           1           0           0           0
           0           0           4          41           0           0
           0           0           5           0           0           0
           0           0           0           0           0           0
           0           0           0           0           0           0
           0           0           0           0           0           0
           0           0           0           0           0           0
           0           0           0           0           0           0
           0           0           0           0
Num RLSW                                   I               41
RLSW                                       R   N=          41
  8.00000000E-01  7.20000000E-01  1.00000000E+00  8.10000000E-01  2.00000000E-01
  0.00000000E+00  0.00000000E+00  1.00000000E+00  0.00000000E+00  0.00000000E+00
  0.00000000E+00  0.00000000E+00  1.00000000E+00  0.00000000E+00  0.00000000E+00
  0.00000000E+00  0.00000000E+00  1.00000000E+00  0.00000000E+00  0.00000000E+00
  0.00000000E+00  0.00000000E+00  1.00000000E+00  0.00000000E+00  0.00000000E+00
  0.00000000E+00  0.00000000E+00  1.00000000E+00  0.00000000E+00  0.00000000E+00
  0.00000000E+00  0.00000000E+00  0.00000000E+00  0.00000000E+00  0.00000000E+00
  0.00000000E+00  0.00000000E+00  0.00000000E+00  1.00000000E+00  1.00000000E+00
  0.00000000E+00
MxBond                                     I                4
NBond                                      I   N=          12
           4           4           3           3           1           1
           1           1           1           1           1           1
IBond                                      I   N=          48
           2           6          10          11           1           3
           9          12           2           4           8           0
           3           5           7           0           4           0
           0           0           1           0           0           0
           4           0           0           0           3           0
           0           0           2           0           0           0
           1           0           0           0           1           0
           0           0           2           0           0           0
RBond                                      R   N=          48
  1.00000000E+00  1.00000000E+00  1.00000000E+00  1.00000000E+00  1.00000000E+00
  1.00000000E+00  1.00000000E+00  1.00000000E+00  1.00000000E+00  2.00000000E+00
  1.00000000E+00  0.00000000E+00  2.00000000E+00  1.00000000E+00  1.00000000E+00
  0.00000000E+00  1.00000000E+00  0.00000000E+00  0.00000000E+00  0.00000000E+00
  1.00000000E+00  0.00000000E+00  0.00000000E+00  0.00000000E+00  1.00000000E+00
  0.00000000E+00  0.00000000E+00  0.00000000E+00  1.00000000E+00  0.00000000E+00
  0.00000000E+00  0.00000000E+00  1.00000000E+00  0.00000000E+00  0.00000000E+00
  0.00000000E+00  1.00000000E+00  0.00000000E+00  0.00000000E+00  0.00000000E+00
  1.00000000E+00  0.00000000E+00  0.00000000E+00  0.00000000E+00  1.00000000E+00
  0.00000000E+00  0.00000000E+00  0.00000000E+00
Virial Ratio                               R      2.002763822781822E+00
SCF Energy                                 R     -6.168918546517858E+02
Total Energy                               R     -6.168918546517858E+02
RMS Density                                R      9.828725132264273E-12
Nuclear derivative order                   I                0
External E-field                           R   N=          35
  0.00000000E+00  0.00000000E+00  0.00000000E+00  0.00000000E+00  0.00000000E+00
  0.00000000E+00  0.00000000E+00  0.00000000E+00  0.00000000E+00  0.00000000E+00
  0.00000000E+00  0.00000000E+00  0.00000000E+00  0.00000000E+00  0.00000000E+00
  0.00000000E+00  0.00000000E+00  0.00000000E+00  0.00000000E+00  0.00000000E+00
  0.00000000E+00  0.00000000E+00  0.00000000E+00  0.00000000E+00  0.00000000E+00
  0.00000000E+00  0.00000000E+00  0.00000000E+00  0.00000000E+00  0.00000000E+00
  0.00000000E+00  0.00000000E+00  0.00000000E+00  0.00000000E+00  0.00000000E+00
IOpCl                                      I                0
IROHF                                      I                0
Alpha Orbital Energies                     R   N=         167
 -1.01533709E+02 -1.02467789E+01 -1.01937959E+01 -1.01838167E+01 -1.01679919E+01
 -9.44813096E+00 -7.21246356E+00 -7.20305676E+00 -7.20288740E+00 -8.67505919E-01
 -7.86869200E-01 -7.47977110E-01 -6.43919505E-01 -5.78106545E-01 -4.87083486E-01
 -4.77304149E-01 -4.49898046E-01 -4.17159875E-01 -4.07328105E-01 -3.78439999E-01
 -3.68417112E-01 -3.05700173E-01 -2.98099399E-01 -2.80351676E-01 -3.22516764E-02
 -6.92035926E-03  6.98328724E-03  7.47750554E-03  2.28516985E-02  2.85455503E-02
  3.91653119E-02  4.18486224E-02  6.44214361E-02  6.53984970E-02  7.33957005E-02
  8.40438026E-02  8.82835233E-02  9.98348151E-02  1.11401817E-01  1.16233740E-01
  1.19334434E-01  1.22496493E-01  1.29354670E-01  1.31321302E-01  1.36713316E-01
  1.41613532E-01  1.50787610E-01  1.57412173E-01  1.61369686E-01  1.67200607E-01
  1.75185673E-01  1.92360963E-01  1.93892429E-01  2.15007530E-01  2.21673353E-01
  2.28193880E-01  2.49387895E-01  2.61343246E-01  2.73234394E-01  2.97773421E-01
  3.46965945E-01  3.56727059E-01  3.91017128E-01  4.24955143E-01  4.30523439E-01
  4.47544111E-01  4.58257497E-01  4.79032996E-01  4.88365654E-01  4.95901282E-01
  5.25858238E-01  5.29045660E-01  5.67967253E-01  5.89449346E-01  5.98079498E-01
  6.25807161E-01  6.45228023E-01  6.50946835E-01  6.65442490E-01  6.75070653E-01
  6.94564924E-01  7.07037679E-01  7.38499384E-01  7.48954960E-01  7.89432411E-01
  8.28995629E-01  8.31613112E-01  8.63876064E-01  8.91983069E-01  9.02751637E-01
  9.44361037E-01  9.60484320E-01  1.00504220E+00  1.03189319E+00  1.06517805E+00
  1.08359307E+00  1.12683940E+00  1.17540914E+00  1.19890166E+00  1.29389492E+00
  1.39877971E+00  1.43081768E+00  1.46643936E+00  1.48398627E+00  1.51057484E+00
  1.54510631E+00  1.57150208E+00  1.59165806E+00  1.60819227E+00  1.63319013E+00
  1.67160022E+00  1.70138103E+00  1.70452000E+00  1.73113190E+00  1.77967604E+00
  1.79165496E+00  1.87438302E+00  1.89451556E+00  1.94073245E+00  1.99301630E+00
  2.02048629E+00  2.09466295E+00  2.12938526E+00  2.18215841E+00  2.19559922E+00
  2.20908303E+00  2.26320503E+00  2.30464653E+00  2.31084300E+00  2.37586275E+00
  2.39657884E+00  2.47219893E+00  2.49003115E+00  2.52089777E+00  2.55500339E+00
  2.57964802E+00  2.58948408E+00  2.61539868E+00  2.63586148E+00  2.65051501E+00
  2.73039228E+00  2.73511922E+00  2.75488839E+00  2.78519790E+00  2.85013673E+00
  2.86454294E+00  2.93173118E+00  3.07625315E+00  3.09132333E+00  3.18493551E+00
  3.40482050E+00  3.50896359E+00  3.71839778E+00  3.88224456E+00  3.90522781E+00
  3.95057118E+00  4.14088763E+00  4.29717198E+00  9.75652334E+00  2.37208131E+01
  2.37911554E+01  2.40630673E+01  2.42553126E+01  2.59310809E+01  2.59744996E+01
  2.64462575E+01  2.15746328E+02
Alpha MO coefficients                      R   N=       27889
  3.24812370E-07 -7.70040753E-07 -3.24640173E-06 -1.89077467E-06 -1.38166198E-06
  3.49530062E-06  2.76243103E-05  1.32805552E-05  1.20015791E-05  2.86299547E-05
  3.74843692E-05  2.98970368E-05  2.40376078E-05 -1.65067137E-03 -1.59295787E-04
  5.08854278E-04  3.60054278E-05  8.97195295E-06 -3.96551242E-06 -4.65345693E-06
  1.38677838E-05  1.82018791E-06  1.47601257E-06 -3.05744545E-06  1.22262227E-05
 -1.19247050E-05  5.29731762E-06 -1.54871637E-05 -1.41753651E-05  1.91137448E-05
 -1.93010473E-05  1.70486258E-04  1.27540286E-04 -1.22047588E-04 -9.06774651E-06
  3.70596676E-03 -4.78277813E-04  4.58815252E-04  8.22239251E-04  9.61843096E-06
 -1.50892625E-06  3.24042482E-06 -2.71617257E-06  7.65185520E-06 -5.97797792E-07
  1.74767514E-06  4.13946103E-06 -2.55672870E-06 -4.19293409E-06 -8.36233434E-06
 -2.44271512E-05  9.80013098E-06  2.53237598E-05  2.22212610E-05  1.54431099E-05
 -9.79287589E-06 -5.94155353E-05 -1.09396629E-03 -1.21118374E-03 -3.83720027E-04
 -1.05468730E-04  6.62932916E-06  5.95283345E-06 -5.90791219E-06  8.59603238E-07
 -4.26526137E-06  3.27857641E-07 -9.71512211E-07 -1.79312314E-06  6.41913116E-07
  7.08971998E-07  9.91362154E-06  8.46429932E-06 -2.37505352E-06  1.42130333E-06
 -5.53548322E-05 -8.53453767E-05 -1.99738564E-05  6.18537545E-05 -1.68175119E-03
 -3.42434505E-04 -1.81127794E-04 -1.22474119E-04 -4.90606905E-06 -1.85130106E-06
 -3.58133291E-06 -1.82206667E-06 -1.69030409E-06 -3.04167680E-06  3.44132507E-05
  6.04836013E-05  4.94162234E-05  6.68100931E-06 -5.61902498E-08  6.27935569E-06
  1.16351664E-05 -9.14666496E-05  8.17451988E-05  2.43035896E-04  9.99094505E-06
  1.40084764E-05 -1.29082333E-05  2.29553652E-06 -2.11643644E-05 -5.17598959E-05
 -1.30938789E-04 -9.41497787E-07 -2.56745978E-07  1.22197522E-06  5.87852948E-06
 -3.59167654E-05  6.12369754E-05  1.45297841E-04 -1.10589286E-05  1.88458218E-06
  1.36778802E-05 -1.20959840E-06 -6.15070836E-05 -1.18942141E-04  1.19331003E-04
 -6.63964119E-06  1.99018653E-06 -1.60017778E-05  9.62992729E-06 -7.13682692E-05
 -1.89266468E-05  8.47043968E-05 -4.84112526E-06  1.26185807E-05  1.77363817E-05
 -7.36150811E-06  4.42277870E-05 -1.46932435E-04 -3.42034997E-04  2.10633021E-06
 -7.09403170E-06 -1.16491242E-07  4.11609664E-01  6.54076174E-01  1.50039261E-02