(R)-3-chloro-1-butene tau=120                                           
SP        RB3LYP                                                      6-311++G(d,p)       
Number of atoms                            I               12
Info1-9                                    I   N=           9
          26          26           0           0           0         110
           1          18        -502
Full Title                                 C   N=           3
(R)-3-chloro-1-butene tau=120       
Route                                      C   N=           7
#P B3LYP/6-311++G** scf(conver=11) int=ultrafine polar=optro
t cphf(rdfreq,conver=11)
Charge                                     I                0
Multiplicity                               I                1
Number of electrons                        I               48
Number of alpha electrons                  I               24
Number of beta electrons                   I               24
Number of basis functions                  I              167
Number of independent functions            I              167
Number of point charges in /Mol/           I                0
Number of translation vectors              I                0
Atomic numbers                             I   N=          12
           6           6           6           6           1           1
           1           1           1           1           1          17
Nuclear charges                            R   N=          12
  6.00000000E+00  6.00000000E+00  6.00000000E+00  6.00000000E+00  1.00000000E+00
  1.00000000E+00  1.00000000E+00  1.00000000E+00  1.00000000E+00  1.00000000E+00
  1.00000000E+00  1.70000000E+01
Current cartesian coordinates              R   N=          36
  8.88843147E-01  3.31711030E+00  5.63523512E-02  1.02378094E-02  6.60136420E-01
 -6.19937709E-01 -2.27677641E+00 -1.83577614E-01  8.09200983E-01 -4.40570761E+00
 -9.45769864E-01 -2.89993999E-01 -4.58936469E+00 -1.05200806E+00 -2.34185839E+00
  2.50853581E+00  3.79761032E+00 -9.23338910E-01 -6.04891471E+00 -1.49823230E+00
  8.19795981E-01 -2.13095708E+00 -1.13084691E-01  2.83595547E+00 -2.89224016E-01
  4.87003481E-01 -2.59608291E+00  1.29205957E+00  3.47224231E+00  2.16556885E+00
 -6.10600763E-01  4.66891189E+00 -4.16118928E-01  2.62169907E+00 -1.57940226E+00
  4.24911221E-02
Number of symbols in /Mol/                 I                0
Force Field                                I                0
Atom Types                                 C   N=          12
                                                            
                                                            
                        
Int Atom Types                             I   N=          12
           0           0           0           0           0           0
           0           0           0           0           0           0
MM charges                                 R   N=          12
  0.00000000E+00  0.00000000E+00  0.00000000E+00  0.00000000E+00  0.00000000E+00
  0.00000000E+00  0.00000000E+00  0.00000000E+00  0.00000000E+00  0.00000000E+00
  0.00000000E+00  0.00000000E+00
Integer atomic weights                     I   N=          12
          12          12          12          12           1           1
           1           1           1           1           1          35
Real atomic weights                        R   N=          12
  1.20000000E+01  1.20000000E+01  1.20000000E+01  1.20000000E+01  1.00782504E+00
  1.00782504E+00  1.00782504E+00  1.00782504E+00  1.00782504E+00  1.00782504E+00
  1.00782504E+00  3.49688527E+01
Atom fragment info                         I   N=          12
           0           0           0           0           0           0
           0           0           0           0           0           0
Atom residue num                           I   N=          12
           0           0           0           0           0           0
           0           0           0           0           0           0
Nuclear spins                              I   N=          12
           0           0           0           0           1           1
           1           1           1           1           1           3
Nuclear ZEff                               R   N=          12
 -3.60000000E+00 -3.60000000E+00 -3.60000000E+00 -3.60000000E+00 -1.00000000E+00
 -1.00000000E+00 -1.00000000E+00 -1.00000000E+00 -1.00000000E+00 -1.00000000E+00
 -1.00000000E+00 -1.42400000E+01
Nuclear ZNuc                               R   N=          12
  6.00000000E+00  6.00000000E+00  6.00000000E+00  6.00000000E+00  1.00000000E+00
  1.00000000E+00  1.00000000E+00  1.00000000E+00  1.00000000E+00  1.00000000E+00
  1.00000000E+00  1.70000000E+01
Nuclear QMom                               R   N=          12
  0.00000000E+00  0.00000000E+00  0.00000000E+00  0.00000000E+00  0.00000000E+00
  0.00000000E+00  0.00000000E+00  0.00000000E+00  0.00000000E+00  0.00000000E+00
  0.00000000E+00 -8.16500000E+00
Nuclear GFac                               R   N=          12
  0.00000000E+00  0.00000000E+00  0.00000000E+00  0.00000000E+00  2.79284600E+00
  2.79284600E+00  2.79284600E+00  2.79284600E+00  2.79284600E+00  2.79284600E+00
  2.79284600E+00  8.21874000E-01
MicOpt                                     I   N=          12
          -1          -1          -1          -1          -1          -1
          -1          -1          -1          -1          -1          -1
Number of residues                         I                0
Number of secondary structures             I                0
SymInf integers                            I   N=          26
           1           1           1           1           1           0
           0           0           0           0           0           0
           0           0           0           0           0           0
           0           0           0           0           0           0
           0           0
RotTr to input orientation                 R   N=          12
  9.99999056E-01 -1.05496777E-03  8.80769522E-04  1.05326156E-03  9.99997572E-01
  1.93539840E-03 -8.82809167E-04 -1.93446890E-03  9.99997739E-01 -7.41957266E-04
 -1.45850244E-04  1.51603673E-03
Number of contracted shells                I               72
Number of primitive shells                 I              126
Pure/Cartesian d shells                    I                0
Pure/Cartesian f shells                    I                0
Highest angular momentum                   I                2
Largest degree of contraction              I                6
Shell types                                I   N=          72
           0          -1          -1          -1          -1          -2
           0          -1          -1          -1          -1          -2
           0          -1          -1          -1          -1          -2
           0          -1          -1          -1          -1          -2
           0           0           0           0           1           0
           0           0           0           1           0           0
           0           0           1           0           0           0
           0           1           0           0           0           0
           1           0           0           0           0           1
           0           0           0           0           1           0
           0           0           0           0           0          -1
           1           1           1           1           1          -2
Number of primitives per shell             I   N=          72
           6           3           1           1           1           1
           6           3           1           1           1           1
           6           3           1           1           1           1
           6           3           1           1           1           1
           3           1           1           1           1           3
           1           1           1           1           3           1
           1           1           1           3           1           1
           1           1           3           1           1           1
           1           3           1           1           1           1
           3           1           1           1           1           6
           3           1           1           1           1           1
           5           2           1           1           1           1
Shell to atom map                          I   N=          72
           1           1           1           1           1           1
           2           2           2           2           2           2
           3           3           3           3           3           3
           4           4           4           4           4           4
           5           5           5           5           5           6
           6           6           6           6           7           7
           7           7           7           8           8           8
           8           8           9           9           9           9
           9          10          10          10          10          10
          11          11          11          11          11          12
          12          12          12          12          12          12
          12          12          12          12          12          12
Primitive exponents                        R   N=         126
  4.56324000E+03  6.82024000E+02  1.54973000E+02  4.44553000E+01  1.30290000E+01
  1.82773000E+00  2.09642000E+01  4.80331000E+00  1.45933000E+00  4.83456000E-01
  1.45585000E-01  4.38000000E-02  6.26000000E-01  4.56324000E+03  6.82024000E+02
  1.54973000E+02  4.44553000E+01  1.30290000E+01  1.82773000E+00  2.09642000E+01
  4.80331000E+00  1.45933000E+00  4.83456000E-01  1.45585000E-01  4.38000000E-02
  6.26000000E-01  4.56324000E+03  6.82024000E+02  1.54973000E+02  4.44553000E+01
  1.30290000E+01  1.82773000E+00  2.09642000E+01  4.80331000E+00  1.45933000E+00
  4.83456000E-01  1.45585000E-01  4.38000000E-02  6.26000000E-01  4.56324000E+03
  6.82024000E+02  1.54973000E+02  4.44553000E+01  1.30290000E+01  1.82773000E+00
  2.09642000E+01  4.80331000E+00  1.45933000E+00  4.83456000E-01  1.45585000E-01
  4.38000000E-02  6.26000000E-01  3.38650000E+01  5.09479000E+00  1.15879000E+00
  3.25840000E-01  1.02741000E-01  3.60000000E-02  7.50000000E-01  3.38650000E+01
  5.09479000E+00  1.15879000E+00  3.25840000E-01  1.02741000E-01  3.60000000E-02
  7.50000000E-01  3.38650000E+01  5.09479000E+00  1.15879000E+00  3.25840000E-01
  1.02741000E-01  3.60000000E-02  7.50000000E-01  3.38650000E+01  5.09479000E+00
  1.15879000E+00  3.25840000E-01  1.02741000E-01  3.60000000E-02  7.50000000E-01
  3.38650000E+01  5.09479000E+00  1.15879000E+00  3.25840000E-01  1.02741000E-01
  3.60000000E-02  7.50000000E-01  3.38650000E+01  5.09479000E+00  1.15879000E+00
  3.25840000E-01  1.02741000E-01  3.60000000E-02  7.50000000E-01  3.38650000E+01
  5.09479000E+00  1.15879000E+00  3.25840000E-01  1.02741000E-01  3.60000000E-02
  7.50000000E-01  1.05819000E+05  1.58720000E+04  3.61965000E+03  1.03080000E+03
  3.39908000E+02  1.24538000E+02  1.24538000E+02  4.95135000E+01  2.08056000E+01
  6.58346000E+00  2.56468000E+00  5.59763000E-01  1.83273000E-01  4.83000000E-02
  5.89776000E+02  1.39849000E+02  4.51413000E+01  1.68733000E+01  2.77152000E+00
  6.74110000E+00  2.77152000E+00  1.02387000E+00  3.81368000E-01  1.09437000E-01
  7.50000000E-01
Contraction coefficients                   R   N=         126
  1.96665025E-03  1.52306019E-02  7.61269097E-02  2.60801033E-01  6.16462078E-01
  2.21006028E-01  1.14660081E-01  9.19999648E-01 -3.03068213E-03  1.00000000E+00
  1.00000000E+00  1.00000000E+00  1.00000000E+00  1.96665025E-03  1.52306019E-02
  7.61269097E-02  2.60801033E-01  6.16462078E-01  2.21006028E-01  1.14660081E-01
  9.19999648E-01 -3.03068213E-03  1.00000000E+00  1.00000000E+00  1.00000000E+00
  1.00000000E+00  1.96665025E-03  1.52306019E-02  7.61269097E-02  2.60801033E-01
  6.16462078E-01  2.21006028E-01  1.14660081E-01  9.19999648E-01 -3.03068213E-03
  1.00000000E+00  1.00000000E+00  1.00000000E+00  1.00000000E+00  1.96665025E-03
  1.52306019E-02  7.61269097E-02  2.60801033E-01  6.16462078E-01  2.21006028E-01
  1.14660081E-01  9.19999648E-01 -3.03068213E-03  1.00000000E+00  1.00000000E+00
  1.00000000E+00  1.00000000E+00  2.54938145E-02  1.90373109E-01  8.52161486E-01
  1.00000000E+00  1.00000000E+00  1.00000000E+00  1.00000000E+00  2.54938145E-02
  1.90373109E-01  8.52161486E-01  1.00000000E+00  1.00000000E+00  1.00000000E+00
  1.00000000E+00  2.54938145E-02  1.90373109E-01  8.52161486E-01  1.00000000E+00
  1.00000000E+00  1.00000000E+00  1.00000000E+00  2.54938145E-02  1.90373109E-01
  8.52161486E-01  1.00000000E+00  1.00000000E+00  1.00000000E+00  1.00000000E+00
  2.54938145E-02  1.90373109E-01  8.52161486E-01  1.00000000E+00  1.00000000E+00
  1.00000000E+00  1.00000000E+00  2.54938145E-02  1.90373109E-01  8.52161486E-01
  1.00000000E+00  1.00000000E+00  1.00000000E+00  1.00000000E+00  2.54938145E-02
  1.90373109E-01  8.52161486E-01  1.00000000E+00  1.00000000E+00  1.00000000E+00
  1.00000000E+00  7.38000247E-04  5.71800191E-03  2.94950099E-02  1.17286039E-01
  3.62949121E-01  5.84149195E-01  1.34176973E-01  6.24249876E-01  2.91755942E-01
  1.00000000E+00  1.00000000E+00  1.00000000E+00  1.00000000E+00  1.00000000E+00
  3.66556935E-03  2.83679194E-02  1.24756603E-01  3.39654631E-01  7.47585963E-01
 -1.57224381E+00  9.92388882E-01  1.00000000E+00  1.00000000E+00  1.00000000E+00
  1.00000000E+00
P(S=P) Contraction coefficients            R   N=         126
  0.00000000E+00  0.00000000E+00  0.00000000E+00  0.00000000E+00  0.00000000E+00
  0.00000000E+00  4.02486927E-02  2.37593957E-01  8.15853851E-01  1.00000000E+00
  1.00000000E+00  1.00000000E+00  0.00000000E+00  0.00000000E+00  0.00000000E+00
  0.00000000E+00  0.00000000E+00  0.00000000E+00  0.00000000E+00  4.02486927E-02
  2.37593957E-01  8.15853851E-01  1.00000000E+00  1.00000000E+00  1.00000000E+00
  0.00000000E+00  0.00000000E+00  0.00000000E+00  0.00000000E+00  0.00000000E+00
  0.00000000E+00  0.00000000E+00  4.02486927E-02  2.37593957E-01  8.15853851E-01
  1.00000000E+00  1.00000000E+00  1.00000000E+00  0.00000000E+00  0.00000000E+00
  0.00000000E+00  0.00000000E+00  0.00000000E+00  0.00000000E+00  0.00000000E+00
  4.02486927E-02  2.37593957E-01  8.15853851E-01  1.00000000E+00  1.00000000E+00
  1.00000000E+00  0.00000000E+00  0.00000000E+00  0.00000000E+00  0.00000000E+00
  0.00000000E+00  0.00000000E+00  0.00000000E+00  0.00000000E+00  0.00000000E+00
  0.00000000E+00  0.00000000E+00  0.00000000E+00  0.00000000E+00  0.00000000E+00
  0.00000000E+00  0.00000000E+00  0.00000000E+00  0.00000000E+00  0.00000000E+00
  0.00000000E+00  0.00000000E+00  0.00000000E+00  0.00000000E+00  0.00000000E+00
  0.00000000E+00  0.00000000E+00  0.00000000E+00  0.00000000E+00  0.00000000E+00
  0.00000000E+00  0.00000000E+00  0.00000000E+00  0.00000000E+00  0.00000000E+00
  0.00000000E+00  0.00000000E+00  0.00000000E+00  0.00000000E+00  0.00000000E+00
  0.00000000E+00  0.00000000E+00  0.00000000E+00  0.00000000E+00  0.00000000E+00
  0.00000000E+00  0.00000000E+00  0.00000000E+00  0.00000000E+00  0.00000000E+00
  0.00000000E+00  0.00000000E+00  0.00000000E+00  0.00000000E+00  0.00000000E+00
  0.00000000E+00  0.00000000E+00  0.00000000E+00  0.00000000E+00  0.00000000E+00
  0.00000000E+00  0.00000000E+00  0.00000000E+00  0.00000000E+00  1.00000000E+00
  0.00000000E+00  0.00000000E+00  0.00000000E+00  0.00000000E+00  0.00000000E+00
  0.00000000E+00  0.00000000E+00  0.00000000E+00  0.00000000E+00  0.00000000E+00
  0.00000000E+00
Coordinates of each shell                  R   N=         216
  8.88843147E-01  3.31711030E+00  5.63523512E-02  8.88843147E-01  3.31711030E+00
  5.63523512E-02  8.88843147E-01  3.31711030E+00  5.63523512E-02  8.88843147E-01
  3.31711030E+00  5.63523512E-02  8.88843147E-01  3.31711030E+00  5.63523512E-02
  8.88843147E-01  3.31711030E+00  5.63523512E-02  1.02378094E-02  6.60136420E-01
 -6.19937709E-01  1.02378094E-02  6.60136420E-01 -6.19937709E-01  1.02378094E-02
  6.60136420E-01 -6.19937709E-01  1.02378094E-02  6.60136420E-01 -6.19937709E-01
  1.02378094E-02  6.60136420E-01 -6.19937709E-01  1.02378094E-02  6.60136420E-01
 -6.19937709E-01 -2.27677641E+00 -1.83577614E-01  8.09200983E-01 -2.27677641E+00
 -1.83577614E-01  8.09200983E-01 -2.27677641E+00 -1.83577614E-01  8.09200983E-01
 -2.27677641E+00 -1.83577614E-01  8.09200983E-01 -2.27677641E+00 -1.83577614E-01
  8.09200983E-01 -2.27677641E+00 -1.83577614E-01  8.09200983E-01 -4.40570761E+00
 -9.45769864E-01 -2.89993999E-01 -4.40570761E+00 -9.45769864E-01 -2.89993999E-01
 -4.40570761E+00 -9.45769864E-01 -2.89993999E-01 -4.40570761E+00 -9.45769864E-01
 -2.89993999E-01 -4.40570761E+00 -9.45769864E-01 -2.89993999E-01 -4.40570761E+00
 -9.45769864E-01 -2.89993999E-01 -4.58936469E+00 -1.05200806E+00 -2.34185839E+00
 -4.58936469E+00 -1.05200806E+00 -2.34185839E+00 -4.58936469E+00 -1.05200806E+00
 -2.34185839E+00 -4.58936469E+00 -1.05200806E+00 -2.34185839E+00 -4.58936469E+00
 -1.05200806E+00 -2.34185839E+00  2.50853581E+00  3.79761032E+00 -9.23338910E-01
  2.50853581E+00  3.79761032E+00 -9.23338910E-01  2.50853581E+00  3.79761032E+00
 -9.23338910E-01  2.50853581E+00  3.79761032E+00 -9.23338910E-01  2.50853581E+00
  3.79761032E+00 -9.23338910E-01 -6.04891471E+00 -1.49823230E+00  8.19795981E-01
 -6.04891471E+00 -1.49823230E+00  8.19795981E-01 -6.04891471E+00 -1.49823230E+00
  8.19795981E-01 -6.04891471E+00 -1.49823230E+00  8.19795981E-01 -6.04891471E+00
 -1.49823230E+00  8.19795981E-01 -2.13095708E+00 -1.13084691E-01  2.83595547E+00
 -2.13095708E+00 -1.13084691E-01  2.83595547E+00 -2.13095708E+00 -1.13084691E-01
  2.83595547E+00 -2.13095708E+00 -1.13084691E-01  2.83595547E+00 -2.13095708E+00
 -1.13084691E-01  2.83595547E+00 -2.89224016E-01  4.87003481E-01 -2.59608291E+00
 -2.89224016E-01  4.87003481E-01 -2.59608291E+00 -2.89224016E-01  4.87003481E-01
 -2.59608291E+00 -2.89224016E-01  4.87003481E-01 -2.59608291E+00 -2.89224016E-01
  4.87003481E-01 -2.59608291E+00  1.29205957E+00  3.47224231E+00  2.16556885E+00
  1.29205957E+00  3.47224231E+00  2.16556885E+00  1.29205957E+00  3.47224231E+00
  2.16556885E+00  1.29205957E+00  3.47224231E+00  2.16556885E+00  1.29205957E+00
  3.47224231E+00  2.16556885E+00 -6.10600763E-01  4.66891189E+00 -4.16118928E-01
 -6.10600763E-01  4.66891189E+00 -4.16118928E-01 -6.10600763E-01  4.66891189E+00
 -4.16118928E-01 -6.10600763E-01  4.66891189E+00 -4.16118928E-01 -6.10600763E-01
  4.66891189E+00 -4.16118928E-01  2.62169907E+00 -1.57940226E+00  4.24911221E-02
  2.62169907E+00 -1.57940226E+00  4.24911221E-02  2.62169907E+00 -1.57940226E+00
  4.24911221E-02  2.62169907E+00 -1.57940226E+00  4.24911221E-02  2.62169907E+00
 -1.57940226E+00  4.24911221E-02  2.62169907E+00 -1.57940226E+00  4.24911221E-02
  2.62169907E+00 -1.57940226E+00  4.24911221E-02  2.62169907E+00 -1.57940226E+00
  4.24911221E-02  2.62169907E+00 -1.57940226E+00  4.24911221E-02  2.62169907E+00
 -1.57940226E+00  4.24911221E-02  2.62169907E+00 -1.57940226E+00  4.24911221E-02
  2.62169907E+00 -1.57940226E+00  4.24911221E-02  2.62169907E+00 -1.57940226E+00
  4.24911221E-02
Constraint Structure                       R   N=          36
  8.88843147E-01  3.31711030E+00  5.63523512E-02  1.02378094E-02  6.60136420E-01
 -6.19937709E-01 -2.27677641E+00 -1.83577614E-01  8.09200983E-01 -4.40570761E+00
 -9.45769864E-01 -2.89993999E-01 -4.58936469E+00 -1.05200806E+00 -2.34185839E+00
  2.50853581E+00  3.79761032E+00 -9.23338910E-01 -6.04891471E+00 -1.49823230E+00
  8.19795981E-01 -2.13095708E+00 -1.13084691E-01  2.83595547E+00 -2.89224016E-01
  4.87003481E-01 -2.59608291E+00  1.29205957E+00  3.47224231E+00  2.16556885E+00
 -6.10600763E-01  4.66891189E+00 -4.16118928E-01  2.62169907E+00 -1.57940226E+00
  4.24911221E-02
Num ILSW                                   I              100
ILSW                                       I   N=         100
           0           0           0           0           2           0
           0           0           0           0         402          -1
           5           0           0           0           0           0
           0           0           0           0           0           0
           1           0           0           0           0           0
           0           0      100000           0          -1           0
           0           0           0           0           0           0
           0           0           0           1           0           0
           0           0           1           0           0           0
           0           0           4          41           0           0
           0           0           5           0           0           0
           0           0           0           0           0           0
           0           0           0           0           0           0
           0           0           0           0           0           0
           0           0           0           0           0           0
           0           0           0           0           0           0
           0           0           0           0
Num RLSW                                   I               41
RLSW                                       R   N=          41
  8.00000000E-01  7.20000000E-01  1.00000000E+00  8.10000000E-01  2.00000000E-01
  0.00000000E+00  0.00000000E+00  1.00000000E+00  0.00000000E+00  0.00000000E+00
  0.00000000E+00  0.00000000E+00  1.00000000E+00  0.00000000E+00  0.00000000E+00
  0.00000000E+00  0.00000000E+00  1.00000000E+00  0.00000000E+00  0.00000000E+00
  0.00000000E+00  0.00000000E+00  1.00000000E+00  0.00000000E+00  0.00000000E+00
  0.00000000E+00  0.00000000E+00  1.00000000E+00  0.00000000E+00  0.00000000E+00
  0.00000000E+00  0.00000000E+00  0.00000000E+00  0.00000000E+00  0.00000000E+00
  0.00000000E+00  0.00000000E+00  0.00000000E+00  1.00000000E+00  1.00000000E+00
  0.00000000E+00
MxBond                                     I                4
NBond                                      I   N=          12
           4           4           3           3           1           1
           1           1           1           1           1           1
IBond                                      I   N=          48
           2           6          10          11           1           3
           9          12           2           4           8           0
           3           5           7           0           4           0
           0           0           1           0           0           0
           4           0           0           0           3           0
           0           0           2           0           0           0
           1           0           0           0           1           0
           0           0           2           0           0           0
RBond                                      R   N=          48
  1.00000000E+00  1.00000000E+00  1.00000000E+00  1.00000000E+00  1.00000000E+00
  1.00000000E+00  1.00000000E+00  1.00000000E+00  1.00000000E+00  2.00000000E+00
  1.00000000E+00  0.00000000E+00  2.00000000E+00  1.00000000E+00  1.00000000E+00
  0.00000000E+00  1.00000000E+00  0.00000000E+00  0.00000000E+00  0.00000000E+00
  1.00000000E+00  0.00000000E+00  0.00000000E+00  0.00000000E+00  1.00000000E+00
  0.00000000E+00  0.00000000E+00  0.00000000E+00  1.00000000E+00  0.00000000E+00
  0.00000000E+00  0.00000000E+00  1.00000000E+00  0.00000000E+00  0.00000000E+00
  0.00000000E+00  1.00000000E+00  0.00000000E+00  0.00000000E+00  0.00000000E+00
  1.00000000E+00  0.00000000E+00  0.00000000E+00  0.00000000E+00  1.00000000E+00
  0.00000000E+00  0.00000000E+00  0.00000000E+00
Virial Ratio                               R      2.002957012978083E+00
SCF Energy                                 R     -6.168916976337130E+02
Total Energy                               R     -6.168916976337130E+02
RMS Density                                R      3.615422588810639E-12
Nuclear derivative order                   I                0
External E-field                           R   N=          35
  0.00000000E+00  0.00000000E+00  0.00000000E+00  0.00000000E+00  0.00000000E+00
  0.00000000E+00  0.00000000E+00  0.00000000E+00  0.00000000E+00  0.00000000E+00
  0.00000000E+00  0.00000000E+00  0.00000000E+00  0.00000000E+00  0.00000000E+00
  0.00000000E+00  0.00000000E+00  0.00000000E+00  0.00000000E+00  0.00000000E+00
  0.00000000E+00  0.00000000E+00  0.00000000E+00  0.00000000E+00  0.00000000E+00
  0.00000000E+00  0.00000000E+00  0.00000000E+00  0.00000000E+00  0.00000000E+00
  0.00000000E+00  0.00000000E+00  0.00000000E+00  0.00000000E+00  0.00000000E+00
IOpCl                                      I                0
IROHF                                      I                0
Alpha Orbital Energies                     R   N=         167
 -1.01534052E+02 -1.02449867E+01 -1.01926935E+01 -1.01848638E+01 -1.01803046E+01
 -9.44848147E+00 -7.21281113E+00 -7.20340335E+00 -7.20324193E+00 -8.68158128E-01
 -7.86934962E-01 -7.43206566E-01 -6.41506331E-01 -5.80420434E-01 -4.85536411E-01
 -4.77316137E-01 -4.46603778E-01 -4.17279134E-01 -4.03022313E-01 -3.74369875E-01
 -3.68250412E-01 -3.06296025E-01 -2.98785110E-01 -2.80461182E-01 -3.21735035E-02
 -7.63452458E-03  6.27631012E-03  8.03125283E-03  2.15331578E-02  2.84233214E-02
  3.89105904E-02  4.07742376E-02  6.38995869E-02  6.49115333E-02  7.33728222E-02
  8.31047079E-02  8.76948963E-02  9.89068781E-02  1.11111696E-01  1.15569089E-01
  1.18399134E-01  1.22413275E-01  1.29944528E-01  1.30469492E-01  1.35236146E-01
  1.41856913E-01  1.50605949E-01  1.56664967E-01  1.60468196E-01  1.64841848E-01
  1.69633945E-01  1.90805204E-01  1.91579831E-01  2.16133106E-01  2.22856932E-01
  2.26202476E-01  2.47850354E-01  2.60897274E-01  2.71469541E-01  2.93697738E-01
  3.40933599E-01  3.56818883E-01  3.90537351E-01  4.25456092E-01  4.30898536E-01
  4.46249662E-01  4.57088483E-01  4.79107090E-01  4.87978092E-01  4.95575779E-01
  5.25597061E-01  5.27264348E-01  5.67273666E-01  5.89308829E-01  5.97447109E-01
  6.23681390E-01  6.34697029E-01  6.47136478E-01  6.57954424E-01  6.67882455E-01
  6.91588144E-01  7.17288423E-01  7.37122022E-01  7.40609424E-01  7.86670675E-01
  8.19226230E-01  8.31342887E-01  8.63152633E-01  8.92136011E-01  9.02963336E-01
  9.43502776E-01  9.59631673E-01  1.00436845E+00  1.03148340E+00  1.06508436E+00
  1.08447498E+00  1.12732729E+00  1.17529681E+00  1.19811315E+00  1.29301556E+00
  1.39323632E+00  1.42847015E+00  1.45163345E+00  1.46979163E+00  1.50798730E+00
  1.54270261E+00  1.54659621E+00  1.58750399E+00  1.61065543E+00  1.62547344E+00
  1.67088912E+00  1.69688725E+00  1.69936765E+00  1.73036778E+00  1.77470919E+00
  1.78866848E+00  1.87892433E+00  1.89213984E+00  1.93281061E+00  1.98527639E+00
  2.01909259E+00  2.07355316E+00  2.12094392E+00  2.18065985E+00  2.19191736E+00
  2.20877662E+00  2.26119533E+00  2.30140344E+00  2.30989143E+00  2.35733427E+00
  2.36925557E+00  2.44459768E+00  2.46770429E+00  2.48947718E+00  2.54115114E+00
  2.55891368E+00  2.57573537E+00  2.59045580E+00  2.62607810E+00  2.64850034E+00
  2.72997414E+00  2.73918156E+00  2.75932284E+00  2.79958309E+00  2.84675749E+00
  2.85819439E+00  2.93101453E+00  3.07967551E+00  3.09771238E+00  3.18945868E+00
  3.40780897E+00  3.51155692E+00  3.70959967E+00  3.75379154E+00  3.85296442E+00
  3.96760537E+00  4.12912348E+00  4.30212747E+00  9.75577030E+00  2.37319764E+01
  2.38088269E+01  2.39663547E+01  2.42555039E+01  2.59311573E+01  2.59738980E+01
  2.64457237E+01  2.15745552E+02
Alpha MO coefficients                      R   N=       27889
  2.84372436E-07 -6.77273329E-07 -2.84012401E-06 -2.16488167E-06 -1.15150972E-06
  3.41784010E-06  2.45762729E-05  1.63902378E-05  3.06569387E-06  1.23818357E-05
  3.83925114E-05  2.90897477E-05  1.98332851E-05 -1.67257229E-03 -1.54707875E-04
  5.01422495E-04  3.85754031E-05  5.93881824E-06 -5.50747903E-06 -4.45372586E-06
  1.42721036E-05  9.27144528E-07  1.55338870E-06 -3.26737957E-06  1.21445435E-05
 -1.18937256E-05  5.34443165E-06 -1.41740983E-05 -1.40922148E-05  1.89106613E-05
 -2.15911714E-05  1.80375438E-04  1.26048455E-04 -1.21121941E-04 -8.99396152E-06
  3.67521091E-03 -4.67267631E-04  4.59485586E-04  8.15908629E-04  1.05402110E-05
 -1.06801679E-06  3.63128486E-06 -2.62898276E-06  7.72779900E-06 -5.57506238E-07
  1.63825983E-06  4.02506852E-06 -2.54804245E-06 -4.24696144E-06 -7.62158366E-06
 -2.38085237E-05  9.82993301E-06  2.62628753E-05  2.06655114E-05  1.30922232E-05
 -1.09286199E-05 -5.88243676E-05 -1.07645509E-03 -1.19944673E-03 -3.81450976E-04
 -1.05164979E-04  6.78381934E-06  5.98340276E-06 -5.85658441E-06  9.79924514E-07
 -4.21683455E-06  3.48035426E-07 -1.02720334E-06 -1.80051457E-06  6.34965836E-07
  6.75311906E-07  1.02587977E-05  8.66458071E-06 -2.28671659E-06  1.37731332E-06
 -5.69231351E-05 -8.50633511E-05 -1.98529232E-05  6.01567101E-05 -1.67512173E-03
 -3.38851650E-04 -1.80919572E-04 -1.20608900E-04 -4.88653187E-06 -1.80109707E-06
 -3.55310642E-06 -1.80298212E-06 -1.67779931E-06 -2.98113106E-06  3.36479804E-05
  6.02895712E-05  5.11271068E-05  6.67812813E-06 -2.57275416E-08  6.23849917E-06
  1.09162747E-05 -9.37522394E-05  8.23670254E-05  2.45856477E-04  1.09879664E-05
  1.44334907E-05 -1.30257901E-05  2.30307562E-06 -2.08659182E-05 -4.96112159E-05
 -1.28257890E-04 -8.78502140E-07 -2.56081266E-07  1.21859015E-06  5.65974179E-06
 -3.69063480E-05  6.18065875E-05  1.46330808E-04 -1.09467266E-05  1.98334719E-06
  1.41496518E-05 -1.99927405E-06 -6.54908613E-05 -1.22394988E-04  1.17283695E-04
 -6.48395669E-06  1.50683672E-06 -1.69864047E-05  1.06409458E-05 -5.78343065E-05
 -1.73875171E-05  7.12565171E-05 -5.10133339E-06  1.21192239E-05  1.31389710E-05
 -7.79139916E-06  3.96465713E-05 -1.36759743E-04 -3.09637088E-04  6.65719325E-07
 -5.21755921E-06 -4.40363218E-07  4.11609654E-01  6.54076189E-01  1.50038653E-02