(R)-3-chloro-1-butene tau=120                                           
SP        RB3LYP                                                      6-311++G(d,p)       
Number of atoms                            I               12
Info1-9                                    I   N=           9
          26          26           0           0           0         110
           1          18        -502
Full Title                                 C   N=           3
(R)-3-chloro-1-butene tau=120       
Route                                      C   N=           7
#P B3LYP/6-311++G** scf(conver=11) int=ultrafine polar=optro
t cphf(rdfreq,conver=11)
Charge                                     I                0
Multiplicity                               I                1
Number of electrons                        I               48
Number of alpha electrons                  I               24
Number of beta electrons                   I               24
Number of basis functions                  I              167
Number of independent functions            I              167
Number of point charges in /Mol/           I                0
Number of translation vectors              I                0
Atomic numbers                             I   N=          12
           6           6           6           6           1           1
           1           1           1           1           1          17
Nuclear charges                            R   N=          12
  6.00000000E+00  6.00000000E+00  6.00000000E+00  6.00000000E+00  1.00000000E+00
  1.00000000E+00  1.00000000E+00  1.00000000E+00  1.00000000E+00  1.00000000E+00
  1.00000000E+00  1.70000000E+01
Current cartesian coordinates              R   N=          36
  9.01080176E-01  3.30206186E+00  6.48184920E-02 -7.96496080E-04  6.51338970E-01
 -5.95626665E-01 -2.29470957E+00 -1.79676318E-01  8.26274435E-01 -4.41083735E+00
 -9.32222231E-01 -3.06850434E-01 -4.55178983E+00 -1.04341642E+00 -2.35129347E+00
  2.39789484E+00  3.91687165E+00 -1.26806599E+00 -6.07235657E+00 -1.46738142E+00
  7.65176802E-01 -2.17517319E+00 -9.71005569E-02  2.87614072E+00 -3.28019035E-01
  4.69461599E-01 -2.62031721E+00  1.67100275E+00  3.35684713E+00  2.01802515E+00
 -7.23310450E-01  4.62854486E+00 -6.24390905E-02  2.62431358E+00 -1.57722591E+00
  4.18281249E-02
Number of symbols in /Mol/                 I                0
Force Field                                I                0
Atom Types                                 C   N=          12
                                                            
                                                            
                        
Int Atom Types                             I   N=          12
           0           0           0           0           0           0
           0           0           0           0           0           0
MM charges                                 R   N=          12
  0.00000000E+00  0.00000000E+00  0.00000000E+00  0.00000000E+00  0.00000000E+00
  0.00000000E+00  0.00000000E+00  0.00000000E+00  0.00000000E+00  0.00000000E+00
  0.00000000E+00  0.00000000E+00
Integer atomic weights                     I   N=          12
          12          12          12          12           1           1
           1           1           1           1           1          35
Real atomic weights                        R   N=          12
  1.20000000E+01  1.20000000E+01  1.20000000E+01  1.20000000E+01  1.00782504E+00
  1.00782504E+00  1.00782504E+00  1.00782504E+00  1.00782504E+00  1.00782504E+00
  1.00782504E+00  3.49688527E+01
Atom fragment info                         I   N=          12
           0           0           0           0           0           0
           0           0           0           0           0           0
Atom residue num                           I   N=          12
           0           0           0           0           0           0
           0           0           0           0           0           0
Nuclear spins                              I   N=          12
           0           0           0           0           1           1
           1           1           1           1           1           3
Nuclear ZEff                               R   N=          12
 -3.60000000E+00 -3.60000000E+00 -3.60000000E+00 -3.60000000E+00 -1.00000000E+00
 -1.00000000E+00 -1.00000000E+00 -1.00000000E+00 -1.00000000E+00 -1.00000000E+00
 -1.00000000E+00 -1.42400000E+01
Nuclear ZNuc                               R   N=          12
  6.00000000E+00  6.00000000E+00  6.00000000E+00  6.00000000E+00  1.00000000E+00
  1.00000000E+00  1.00000000E+00  1.00000000E+00  1.00000000E+00  1.00000000E+00
  1.00000000E+00  1.70000000E+01
Nuclear QMom                               R   N=          12
  0.00000000E+00  0.00000000E+00  0.00000000E+00  0.00000000E+00  0.00000000E+00
  0.00000000E+00  0.00000000E+00  0.00000000E+00  0.00000000E+00  0.00000000E+00
  0.00000000E+00 -8.16500000E+00
Nuclear GFac                               R   N=          12
  0.00000000E+00  0.00000000E+00  0.00000000E+00  0.00000000E+00  2.79284600E+00
  2.79284600E+00  2.79284600E+00  2.79284600E+00  2.79284600E+00  2.79284600E+00
  2.79284600E+00  8.21874000E-01
MicOpt                                     I   N=          12
          -1          -1          -1          -1          -1          -1
          -1          -1          -1          -1          -1          -1
Number of residues                         I                0
Number of secondary structures             I                0
SymInf integers                            I   N=          26
           1           1           1           1           1           0
           0           0           0           0           0           0
           0           0           0           0           0           0
           0           0           0           0           0           0
           0           0
RotTr to input orientation                 R   N=          12
  9.99995792E-01  6.63835074E-04  2.82418670E-03 -6.62484458E-04  9.99999666E-01
 -4.79140388E-04 -2.82450382E-03  4.77267391E-04  9.99995897E-01 -1.12710353E-05
 -4.02780165E-04 -1.09883716E-03
Number of contracted shells                I               72
Number of primitive shells                 I              126
Pure/Cartesian d shells                    I                0
Pure/Cartesian f shells                    I                0
Highest angular momentum                   I                2
Largest degree of contraction              I                6
Shell types                                I   N=          72
           0          -1          -1          -1          -1          -2
           0          -1          -1          -1          -1          -2
           0          -1          -1          -1          -1          -2
           0          -1          -1          -1          -1          -2
           0           0           0           0           1           0
           0           0           0           1           0           0
           0           0           1           0           0           0
           0           1           0           0           0           0
           1           0           0           0           0           1
           0           0           0           0           1           0
           0           0           0           0           0          -1
           1           1           1           1           1          -2
Number of primitives per shell             I   N=          72
           6           3           1           1           1           1
           6           3           1           1           1           1
           6           3           1           1           1           1
           6           3           1           1           1           1
           3           1           1           1           1           3
           1           1           1           1           3           1
           1           1           1           3           1           1
           1           1           3           1           1           1
           1           3           1           1           1           1
           3           1           1           1           1           6
           3           1           1           1           1           1
           5           2           1           1           1           1
Shell to atom map                          I   N=          72
           1           1           1           1           1           1
           2           2           2           2           2           2
           3           3           3           3           3           3
           4           4           4           4           4           4
           5           5           5           5           5           6
           6           6           6           6           7           7
           7           7           7           8           8           8
           8           8           9           9           9           9
           9          10          10          10          10          10
          11          11          11          11          11          12
          12          12          12          12          12          12
          12          12          12          12          12          12
Primitive exponents                        R   N=         126
  4.56324000E+03  6.82024000E+02  1.54973000E+02  4.44553000E+01  1.30290000E+01
  1.82773000E+00  2.09642000E+01  4.80331000E+00  1.45933000E+00  4.83456000E-01
  1.45585000E-01  4.38000000E-02  6.26000000E-01  4.56324000E+03  6.82024000E+02
  1.54973000E+02  4.44553000E+01  1.30290000E+01  1.82773000E+00  2.09642000E+01
  4.80331000E+00  1.45933000E+00  4.83456000E-01  1.45585000E-01  4.38000000E-02
  6.26000000E-01  4.56324000E+03  6.82024000E+02  1.54973000E+02  4.44553000E+01
  1.30290000E+01  1.82773000E+00  2.09642000E+01  4.80331000E+00  1.45933000E+00
  4.83456000E-01  1.45585000E-01  4.38000000E-02  6.26000000E-01  4.56324000E+03
  6.82024000E+02  1.54973000E+02  4.44553000E+01  1.30290000E+01  1.82773000E+00
  2.09642000E+01  4.80331000E+00  1.45933000E+00  4.83456000E-01  1.45585000E-01
  4.38000000E-02  6.26000000E-01  3.38650000E+01  5.09479000E+00  1.15879000E+00
  3.25840000E-01  1.02741000E-01  3.60000000E-02  7.50000000E-01  3.38650000E+01
  5.09479000E+00  1.15879000E+00  3.25840000E-01  1.02741000E-01  3.60000000E-02
  7.50000000E-01  3.38650000E+01  5.09479000E+00  1.15879000E+00  3.25840000E-01
  1.02741000E-01  3.60000000E-02  7.50000000E-01  3.38650000E+01  5.09479000E+00
  1.15879000E+00  3.25840000E-01  1.02741000E-01  3.60000000E-02  7.50000000E-01
  3.38650000E+01  5.09479000E+00  1.15879000E+00  3.25840000E-01  1.02741000E-01
  3.60000000E-02  7.50000000E-01  3.38650000E+01  5.09479000E+00  1.15879000E+00
  3.25840000E-01  1.02741000E-01  3.60000000E-02  7.50000000E-01  3.38650000E+01
  5.09479000E+00  1.15879000E+00  3.25840000E-01  1.02741000E-01  3.60000000E-02
  7.50000000E-01  1.05819000E+05  1.58720000E+04  3.61965000E+03  1.03080000E+03
  3.39908000E+02  1.24538000E+02  1.24538000E+02  4.95135000E+01  2.08056000E+01
  6.58346000E+00  2.56468000E+00  5.59763000E-01  1.83273000E-01  4.83000000E-02
  5.89776000E+02  1.39849000E+02  4.51413000E+01  1.68733000E+01  2.77152000E+00
  6.74110000E+00  2.77152000E+00  1.02387000E+00  3.81368000E-01  1.09437000E-01
  7.50000000E-01
Contraction coefficients                   R   N=         126
  1.96665025E-03  1.52306019E-02  7.61269097E-02  2.60801033E-01  6.16462078E-01
  2.21006028E-01  1.14660081E-01  9.19999648E-01 -3.03068213E-03  1.00000000E+00
  1.00000000E+00  1.00000000E+00  1.00000000E+00  1.96665025E-03  1.52306019E-02
  7.61269097E-02  2.60801033E-01  6.16462078E-01  2.21006028E-01  1.14660081E-01
  9.19999648E-01 -3.03068213E-03  1.00000000E+00  1.00000000E+00  1.00000000E+00
  1.00000000E+00  1.96665025E-03  1.52306019E-02  7.61269097E-02  2.60801033E-01
  6.16462078E-01  2.21006028E-01  1.14660081E-01  9.19999648E-01 -3.03068213E-03
  1.00000000E+00  1.00000000E+00  1.00000000E+00  1.00000000E+00  1.96665025E-03
  1.52306019E-02  7.61269097E-02  2.60801033E-01  6.16462078E-01  2.21006028E-01
  1.14660081E-01  9.19999648E-01 -3.03068213E-03  1.00000000E+00  1.00000000E+00
  1.00000000E+00  1.00000000E+00  2.54938145E-02  1.90373109E-01  8.52161486E-01
  1.00000000E+00  1.00000000E+00  1.00000000E+00  1.00000000E+00  2.54938145E-02
  1.90373109E-01  8.52161486E-01  1.00000000E+00  1.00000000E+00  1.00000000E+00
  1.00000000E+00  2.54938145E-02  1.90373109E-01  8.52161486E-01  1.00000000E+00
  1.00000000E+00  1.00000000E+00  1.00000000E+00  2.54938145E-02  1.90373109E-01
  8.52161486E-01  1.00000000E+00  1.00000000E+00  1.00000000E+00  1.00000000E+00
  2.54938145E-02  1.90373109E-01  8.52161486E-01  1.00000000E+00  1.00000000E+00
  1.00000000E+00  1.00000000E+00  2.54938145E-02  1.90373109E-01  8.52161486E-01
  1.00000000E+00  1.00000000E+00  1.00000000E+00  1.00000000E+00  2.54938145E-02
  1.90373109E-01  8.52161486E-01  1.00000000E+00  1.00000000E+00  1.00000000E+00
  1.00000000E+00  7.38000247E-04  5.71800191E-03  2.94950099E-02  1.17286039E-01
  3.62949121E-01  5.84149195E-01  1.34176973E-01  6.24249876E-01  2.91755942E-01
  1.00000000E+00  1.00000000E+00  1.00000000E+00  1.00000000E+00  1.00000000E+00
  3.66556935E-03  2.83679194E-02  1.24756603E-01  3.39654631E-01  7.47585963E-01
 -1.57224381E+00  9.92388882E-01  1.00000000E+00  1.00000000E+00  1.00000000E+00
  1.00000000E+00
P(S=P) Contraction coefficients            R   N=         126
  0.00000000E+00  0.00000000E+00  0.00000000E+00  0.00000000E+00  0.00000000E+00
  0.00000000E+00  4.02486927E-02  2.37593957E-01  8.15853851E-01  1.00000000E+00
  1.00000000E+00  1.00000000E+00  0.00000000E+00  0.00000000E+00  0.00000000E+00
  0.00000000E+00  0.00000000E+00  0.00000000E+00  0.00000000E+00  4.02486927E-02
  2.37593957E-01  8.15853851E-01  1.00000000E+00  1.00000000E+00  1.00000000E+00
  0.00000000E+00  0.00000000E+00  0.00000000E+00  0.00000000E+00  0.00000000E+00
  0.00000000E+00  0.00000000E+00  4.02486927E-02  2.37593957E-01  8.15853851E-01
  1.00000000E+00  1.00000000E+00  1.00000000E+00  0.00000000E+00  0.00000000E+00
  0.00000000E+00  0.00000000E+00  0.00000000E+00  0.00000000E+00  0.00000000E+00
  4.02486927E-02  2.37593957E-01  8.15853851E-01  1.00000000E+00  1.00000000E+00
  1.00000000E+00  0.00000000E+00  0.00000000E+00  0.00000000E+00  0.00000000E+00
  0.00000000E+00  0.00000000E+00  0.00000000E+00  0.00000000E+00  0.00000000E+00
  0.00000000E+00  0.00000000E+00  0.00000000E+00  0.00000000E+00  0.00000000E+00
  0.00000000E+00  0.00000000E+00  0.00000000E+00  0.00000000E+00  0.00000000E+00
  0.00000000E+00  0.00000000E+00  0.00000000E+00  0.00000000E+00  0.00000000E+00
  0.00000000E+00  0.00000000E+00  0.00000000E+00  0.00000000E+00  0.00000000E+00
  0.00000000E+00  0.00000000E+00  0.00000000E+00  0.00000000E+00  0.00000000E+00
  0.00000000E+00  0.00000000E+00  0.00000000E+00  0.00000000E+00  0.00000000E+00
  0.00000000E+00  0.00000000E+00  0.00000000E+00  0.00000000E+00  0.00000000E+00
  0.00000000E+00  0.00000000E+00  0.00000000E+00  0.00000000E+00  0.00000000E+00
  0.00000000E+00  0.00000000E+00  0.00000000E+00  0.00000000E+00  0.00000000E+00
  0.00000000E+00  0.00000000E+00  0.00000000E+00  0.00000000E+00  0.00000000E+00
  0.00000000E+00  0.00000000E+00  0.00000000E+00  0.00000000E+00  1.00000000E+00
  0.00000000E+00  0.00000000E+00  0.00000000E+00  0.00000000E+00  0.00000000E+00
  0.00000000E+00  0.00000000E+00  0.00000000E+00  0.00000000E+00  0.00000000E+00
  0.00000000E+00
Coordinates of each shell                  R   N=         216
  9.01080176E-01  3.30206186E+00  6.48184920E-02  9.01080176E-01  3.30206186E+00
  6.48184920E-02  9.01080176E-01  3.30206186E+00  6.48184920E-02  9.01080176E-01
  3.30206186E+00  6.48184920E-02  9.01080176E-01  3.30206186E+00  6.48184920E-02
  9.01080176E-01  3.30206186E+00  6.48184920E-02 -7.96496080E-04  6.51338970E-01
 -5.95626665E-01 -7.96496080E-04  6.51338970E-01 -5.95626665E-01 -7.96496080E-04
  6.51338970E-01 -5.95626665E-01 -7.96496080E-04  6.51338970E-01 -5.95626665E-01
 -7.96496080E-04  6.51338970E-01 -5.95626665E-01 -7.96496080E-04  6.51338970E-01
 -5.95626665E-01 -2.29470957E+00 -1.79676318E-01  8.26274435E-01 -2.29470957E+00
 -1.79676318E-01  8.26274435E-01 -2.29470957E+00 -1.79676318E-01  8.26274435E-01
 -2.29470957E+00 -1.79676318E-01  8.26274435E-01 -2.29470957E+00 -1.79676318E-01
  8.26274435E-01 -2.29470957E+00 -1.79676318E-01  8.26274435E-01 -4.41083735E+00
 -9.32222231E-01 -3.06850434E-01 -4.41083735E+00 -9.32222231E-01 -3.06850434E-01
 -4.41083735E+00 -9.32222231E-01 -3.06850434E-01 -4.41083735E+00 -9.32222231E-01
 -3.06850434E-01 -4.41083735E+00 -9.32222231E-01 -3.06850434E-01 -4.41083735E+00
 -9.32222231E-01 -3.06850434E-01 -4.55178983E+00 -1.04341642E+00 -2.35129347E+00
 -4.55178983E+00 -1.04341642E+00 -2.35129347E+00 -4.55178983E+00 -1.04341642E+00
 -2.35129347E+00 -4.55178983E+00 -1.04341642E+00 -2.35129347E+00 -4.55178983E+00
 -1.04341642E+00 -2.35129347E+00  2.39789484E+00  3.91687165E+00 -1.26806599E+00
  2.39789484E+00  3.91687165E+00 -1.26806599E+00  2.39789484E+00  3.91687165E+00
 -1.26806599E+00  2.39789484E+00  3.91687165E+00 -1.26806599E+00  2.39789484E+00
  3.91687165E+00 -1.26806599E+00 -6.07235657E+00 -1.46738142E+00  7.65176802E-01
 -6.07235657E+00 -1.46738142E+00  7.65176802E-01 -6.07235657E+00 -1.46738142E+00
  7.65176802E-01 -6.07235657E+00 -1.46738142E+00  7.65176802E-01 -6.07235657E+00
 -1.46738142E+00  7.65176802E-01 -2.17517319E+00 -9.71005569E-02  2.87614072E+00
 -2.17517319E+00 -9.71005569E-02  2.87614072E+00 -2.17517319E+00 -9.71005569E-02
  2.87614072E+00 -2.17517319E+00 -9.71005569E-02  2.87614072E+00 -2.17517319E+00
 -9.71005569E-02  2.87614072E+00 -3.28019035E-01  4.69461599E-01 -2.62031721E+00
 -3.28019035E-01  4.69461599E-01 -2.62031721E+00 -3.28019035E-01  4.69461599E-01
 -2.62031721E+00 -3.28019035E-01  4.69461599E-01 -2.62031721E+00 -3.28019035E-01
  4.69461599E-01 -2.62031721E+00  1.67100275E+00  3.35684713E+00  2.01802515E+00
  1.67100275E+00  3.35684713E+00  2.01802515E+00  1.67100275E+00  3.35684713E+00
  2.01802515E+00  1.67100275E+00  3.35684713E+00  2.01802515E+00  1.67100275E+00
  3.35684713E+00  2.01802515E+00 -7.23310450E-01  4.62854486E+00 -6.24390905E-02
 -7.23310450E-01  4.62854486E+00 -6.24390905E-02 -7.23310450E-01  4.62854486E+00
 -6.24390905E-02 -7.23310450E-01  4.62854486E+00 -6.24390905E-02 -7.23310450E-01
  4.62854486E+00 -6.24390905E-02  2.62431358E+00 -1.57722591E+00  4.18281249E-02
  2.62431358E+00 -1.57722591E+00  4.18281249E-02  2.62431358E+00 -1.57722591E+00
  4.18281249E-02  2.62431358E+00 -1.57722591E+00  4.18281249E-02  2.62431358E+00
 -1.57722591E+00  4.18281249E-02  2.62431358E+00 -1.57722591E+00  4.18281249E-02
  2.62431358E+00 -1.57722591E+00  4.18281249E-02  2.62431358E+00 -1.57722591E+00
  4.18281249E-02  2.62431358E+00 -1.57722591E+00  4.18281249E-02  2.62431358E+00
 -1.57722591E+00  4.18281249E-02  2.62431358E+00 -1.57722591E+00  4.18281249E-02
  2.62431358E+00 -1.57722591E+00  4.18281249E-02  2.62431358E+00 -1.57722591E+00
  4.18281249E-02
Constraint Structure                       R   N=          36
  9.01080176E-01  3.30206186E+00  6.48184920E-02 -7.96496080E-04  6.51338970E-01
 -5.95626665E-01 -2.29470957E+00 -1.79676318E-01  8.26274435E-01 -4.41083735E+00
 -9.32222231E-01 -3.06850434E-01 -4.55178983E+00 -1.04341642E+00 -2.35129347E+00
  2.39789484E+00  3.91687165E+00 -1.26806599E+00 -6.07235657E+00 -1.46738142E+00
  7.65176802E-01 -2.17517319E+00 -9.71005569E-02  2.87614072E+00 -3.28019035E-01
  4.69461599E-01 -2.62031721E+00  1.67100275E+00  3.35684713E+00  2.01802515E+00
 -7.23310450E-01  4.62854486E+00 -6.24390905E-02  2.62431358E+00 -1.57722591E+00
  4.18281249E-02
Num ILSW                                   I              100
ILSW                                       I   N=         100
           0           0           0           0           2           0
           0           0           0           0         402          -1
           5           0           0           0           0           0
           0           0           0           0           0           0
           1           0           0           0           0           0
           0           0      100000           0          -1           0
           0           0           0           0           0           0
           0           0           0           1           0           0
           0           0           1           0           0           0
           0           0           4          41           0           0
           0           0           5           0           0           0
           0           0           0           0           0           0
           0           0           0           0           0           0
           0           0           0           0           0           0
           0           0           0           0           0           0
           0           0           0           0           0           0
           0           0           0           0
Num RLSW                                   I               41
RLSW                                       R   N=          41
  8.00000000E-01  7.20000000E-01  1.00000000E+00  8.10000000E-01  2.00000000E-01
  0.00000000E+00  0.00000000E+00  1.00000000E+00  0.00000000E+00  0.00000000E+00
  0.00000000E+00  0.00000000E+00  1.00000000E+00  0.00000000E+00  0.00000000E+00
  0.00000000E+00  0.00000000E+00  1.00000000E+00  0.00000000E+00  0.00000000E+00
  0.00000000E+00  0.00000000E+00  1.00000000E+00  0.00000000E+00  0.00000000E+00
  0.00000000E+00  0.00000000E+00  1.00000000E+00  0.00000000E+00  0.00000000E+00
  0.00000000E+00  0.00000000E+00  0.00000000E+00  0.00000000E+00  0.00000000E+00
  0.00000000E+00  0.00000000E+00  0.00000000E+00  1.00000000E+00  1.00000000E+00
  0.00000000E+00
MxBond                                     I                4
NBond                                      I   N=          12
           4           4           3           3           1           1
           1           1           1           1           1           1
IBond                                      I   N=          48
           2           6          10          11           1           3
           9          12           2           4           8           0
           3           5           7           0           4           0
           0           0           1           0           0           0
           4           0           0           0           3           0
           0           0           2           0           0           0
           1           0           0           0           1           0
           0           0           2           0           0           0
RBond                                      R   N=          48
  1.00000000E+00  1.00000000E+00  1.00000000E+00  1.00000000E+00  1.00000000E+00
  1.00000000E+00  1.00000000E+00  1.00000000E+00  1.00000000E+00  2.00000000E+00
  1.00000000E+00  0.00000000E+00  2.00000000E+00  1.00000000E+00  1.00000000E+00
  0.00000000E+00  1.00000000E+00  0.00000000E+00  0.00000000E+00  0.00000000E+00
  1.00000000E+00  0.00000000E+00  0.00000000E+00  0.00000000E+00  1.00000000E+00
  0.00000000E+00  0.00000000E+00  0.00000000E+00  1.00000000E+00  0.00000000E+00
  0.00000000E+00  0.00000000E+00  1.00000000E+00  0.00000000E+00  0.00000000E+00
  0.00000000E+00  1.00000000E+00  0.00000000E+00  0.00000000E+00  0.00000000E+00
  1.00000000E+00  0.00000000E+00  0.00000000E+00  0.00000000E+00  1.00000000E+00
  0.00000000E+00  0.00000000E+00  0.00000000E+00
Virial Ratio                               R      2.003165850670672E+00
SCF Energy                                 R     -6.168945792496495E+02
Total Energy                               R     -6.168945792496495E+02
RMS Density                                R      9.248142483926079E-12
Nuclear derivative order                   I                0
External E-field                           R   N=          35
  0.00000000E+00  0.00000000E+00  0.00000000E+00  0.00000000E+00  0.00000000E+00
  0.00000000E+00  0.00000000E+00  0.00000000E+00  0.00000000E+00  0.00000000E+00
  0.00000000E+00  0.00000000E+00  0.00000000E+00  0.00000000E+00  0.00000000E+00
  0.00000000E+00  0.00000000E+00  0.00000000E+00  0.00000000E+00  0.00000000E+00
  0.00000000E+00  0.00000000E+00  0.00000000E+00  0.00000000E+00  0.00000000E+00
  0.00000000E+00  0.00000000E+00  0.00000000E+00  0.00000000E+00  0.00000000E+00
  0.00000000E+00  0.00000000E+00  0.00000000E+00  0.00000000E+00  0.00000000E+00
IOpCl                                      I                0
IROHF                                      I                0
Alpha Orbital Energies                     R   N=         167
 -1.01534073E+02 -1.02473328E+01 -1.01944070E+01 -1.01863956E+01 -1.01845507E+01
 -9.44850672E+00 -7.21284548E+00 -7.20343057E+00 -7.20325463E+00 -8.67410673E-01
 -7.87573748E-01 -7.39819517E-01 -6.37798028E-01 -5.77704373E-01 -4.85359081E-01
 -4.75420919E-01 -4.43945484E-01 -4.15314864E-01 -4.02236271E-01 -3.73382862E-01
 -3.66367477E-01 -3.05769910E-01 -2.98351555E-01 -2.81092672E-01 -3.28410597E-02
 -7.79717599E-03  6.11900371E-03  7.16548372E-03  2.05325938E-02  2.82576465E-02
  3.87790903E-02  3.97611994E-02  6.15928953E-02  6.75189223E-02  7.24063409E-02
  8.39673255E-02  8.67463263E-02  9.82743776E-02  1.12016080E-01  1.14657815E-01
  1.17884774E-01  1.20588287E-01  1.29049048E-01  1.31489743E-01  1.35939496E-01
  1.42145792E-01  1.50561960E-01  1.54612497E-01  1.60652230E-01  1.63710406E-01
  1.68428030E-01  1.86344824E-01  1.90149661E-01  2.14602969E-01  2.17162737E-01
  2.26291572E-01  2.43956904E-01  2.56517640E-01  2.70820800E-01  2.89984929E-01
  3.38860989E-01  3.59231829E-01  3.90724197E-01  4.27097156E-01  4.32820097E-01
  4.50655146E-01  4.60053802E-01  4.76590722E-01  4.90769498E-01  4.97477851E-01
  5.22500427E-01  5.29177465E-01  5.64321904E-01  5.86475963E-01  5.98048950E-01
  6.20915915E-01  6.22216265E-01  6.43232089E-01  6.50712828E-01  6.58746138E-01
  6.89928294E-01  7.07098698E-01  7.24536833E-01  7.39089884E-01  7.90543469E-01
  8.14852985E-01  8.35212496E-01  8.58472627E-01  8.87544157E-01  8.99659980E-01
  9.40043349E-01  9.52590713E-01  9.99629016E-01  1.03632613E+00  1.06361917E+00
  1.08557772E+00  1.12885827E+00  1.18156892E+00  1.20064447E+00  1.30824227E+00
  1.38972303E+00  1.42593552E+00  1.43194256E+00  1.47092528E+00  1.50799941E+00
  1.53957407E+00  1.55495278E+00  1.57985666E+00  1.59050023E+00  1.62843234E+00
  1.66735726E+00  1.68225481E+00  1.69066920E+00  1.73040806E+00  1.78240065E+00
  1.78979114E+00  1.86114836E+00  1.87838919E+00  1.93734125E+00  1.98597834E+00
  2.01236369E+00  2.05835218E+00  2.10910964E+00  2.17446277E+00  2.19008827E+00
  2.19565599E+00  2.24577560E+00  2.29457641E+00  2.30522946E+00  2.34748239E+00
  2.37543566E+00  2.43530202E+00  2.45804361E+00  2.48081942E+00  2.50767370E+00
  2.54840081E+00  2.57110716E+00  2.59216697E+00  2.60091579E+00  2.65001972E+00
  2.72274626E+00  2.73759422E+00  2.74229136E+00  2.78365785E+00  2.84721904E+00
  2.86525112E+00  2.92719782E+00  3.08266262E+00  3.09019145E+00  3.17958555E+00
  3.39420088E+00  3.50508279E+00  3.70931487E+00  3.75543054E+00  3.76520674E+00
  3.95434792E+00  4.10796379E+00  4.28343809E+00  9.75511085E+00  2.37196087E+01
  2.37911969E+01  2.38961342E+01  2.42513019E+01  2.59272463E+01  2.59799465E+01
  2.64465517E+01  2.15745056E+02
Alpha MO coefficients                      R   N=       27889
 -5.44404210E-08  2.65208859E-07 -1.95882473E-06 -2.12214123E-06  2.04295563E-07
 -4.60592275E-06  1.52738368E-05  1.64871348E-05 -1.74658250E-06  1.88992412E-05
  4.68111908E-05  2.85487647E-05  1.82921305E-05 -1.59038499E-03 -1.01317992E-04
  4.53688646E-04  1.81433067E-04  6.89992349E-06 -1.74130125E-06 -6.89372391E-06
  1.06472906E-05 -4.50667487E-07  1.39395722E-06 -2.83056278E-06  1.27033523E-05
 -1.14704541E-05  4.92806812E-06 -1.68468090E-05 -1.58430427E-05  1.77117156E-05
 -1.81742835E-05  1.81307684E-04  1.25864855E-04 -1.23236572E-04  3.82560454E-06
  3.60298764E-03 -4.39065183E-04  5.00268991E-04  7.18401020E-04  9.98218492E-06
 -1.89239098E-06  3.41051916E-06 -2.11578489E-06  7.74218544E-06 -6.07831443E-07
  1.77420519E-06  4.27089819E-06 -2.93794368E-06 -4.23171383E-06 -7.60577814E-06
 -2.46691980E-05  1.07504078E-05  2.50081430E-05  2.14577371E-05 -8.30756455E-06
 -1.80049402E-05 -6.93504679E-05 -8.82883529E-04 -1.16232803E-03 -3.82513958E-04
 -1.93132923E-04  6.39731580E-06  6.40934215E-06 -5.44492490E-06 -1.82881571E-07
 -3.59450883E-06  3.51032510E-07 -1.03987919E-06 -1.75695387E-06  6.98129331E-07
  8.46961461E-07  1.08727735E-05  8.12518247E-06 -2.51919475E-06  9.06831447E-07
 -8.19357720E-05 -9.66271742E-05 -2.28395506E-05  5.71916096E-05 -1.75714058E-03
 -3.78904879E-04 -1.87976311E-04 -9.20936674E-05 -5.08062911E-06 -1.80913677E-06
 -3.71174638E-06 -2.21410297E-06 -1.66330616E-06 -2.98590421E-06  3.45863773E-05
  6.63535405E-05  8.44957699E-05  6.82400263E-06  1.02724782E-07  6.55455984E-06
  1.41657920E-05 -8.42265565E-05  6.91425448E-05  2.50805609E-04  5.73767572E-06
  1.48717942E-05 -1.27280734E-05  2.18449384E-06 -1.97586116E-05 -5.83771440E-05
 -1.64481958E-04 -8.81896346E-07 -9.44319081E-08  1.28331877E-06  4.95522056E-06
 -2.89730446E-05  6.56989634E-05  2.03961754E-04 -9.75986000E-06  1.90634002E-06
  1.27917925E-05 -1.91990197E-06 -5.63064770E-05 -1.31449777E-04  5.07809712E-05
 -6.59687786E-06  1.90274594E-06 -1.56805839E-05  6.45618222E-06 -4.72871431E-05
 -7.54192415E-05 -4.85401169E-05 -2.31244715E-06  1.07224600E-05  1.23715947E-05
 -7.21240624E-06  3.35807738E-05 -1.21593134E-04 -2.42139666E-04 -7.06838999E-07
 -4.19884443E-06  5.48443250E-07  4.11609647E-01  6.54076205E-01  1.50037953E-02