(R)-3-chloro-1-butene tau=120                                           
SP        RB3LYP                                                      6-311++G(d,p)       
Number of atoms                            I               12
Info1-9                                    I   N=           9
          26          26           0           0           0         110
           1          18        -502
Full Title                                 C   N=           3
(R)-3-chloro-1-butene tau=120       
Route                                      C   N=           7
#P B3LYP/6-311++G** scf(conver=11) int=ultrafine polar=optro
t cphf(rdfreq,conver=11)
Charge                                     I                0
Multiplicity                               I                1
Number of electrons                        I               48
Number of alpha electrons                  I               24
Number of beta electrons                   I               24
Number of basis functions                  I              167
Number of independent functions            I              167
Number of point charges in /Mol/           I                0
Number of translation vectors              I                0
Atomic numbers                             I   N=          12
           6           6           6           6           1           1
           1           1           1           1           1          17
Nuclear charges                            R   N=          12
  6.00000000E+00  6.00000000E+00  6.00000000E+00  6.00000000E+00  1.00000000E+00
  1.00000000E+00  1.00000000E+00  1.00000000E+00  1.00000000E+00  1.00000000E+00
  1.00000000E+00  1.70000000E+01
Current cartesian coordinates              R   N=          36
  8.80606714E-01  3.34268188E+00  7.78718857E-02 -2.87448461E-02  6.82876928E-01
 -6.35919268E-01 -2.25758218E+00 -2.47028032E-01  8.13360345E-01 -4.40486804E+00
 -9.46092183E-01 -2.93549572E-01 -4.52000109E+00 -1.16151773E+00 -2.33478333E+00
  2.60825211E+00  3.79331936E+00 -9.55985150E-01 -6.11908703E+00 -1.31013220E+00
  7.85451207E-01 -2.13533784E+00 -5.79611072E-02  2.85901719E+00 -3.37396451E-01
  5.07814644E-01 -2.66375437E+00  1.29297103E+00  3.44678143E+00  2.09796212E+00
 -5.57395741E-01  4.75901357E+00 -3.80237527E-01  2.62538383E+00 -1.58658527E+00
  4.83382063E-02
Number of symbols in /Mol/                 I                0
Force Field                                I                0
Atom Types                                 C   N=          12
                                                            
                                                            
                        
Int Atom Types                             I   N=          12
           0           0           0           0           0           0
           0           0           0           0           0           0
MM charges                                 R   N=          12
  0.00000000E+00  0.00000000E+00  0.00000000E+00  0.00000000E+00  0.00000000E+00
  0.00000000E+00  0.00000000E+00  0.00000000E+00  0.00000000E+00  0.00000000E+00
  0.00000000E+00  0.00000000E+00
Integer atomic weights                     I   N=          12
          12          12          12          12           1           1
           1           1           1           1           1          35
Real atomic weights                        R   N=          12
  1.20000000E+01  1.20000000E+01  1.20000000E+01  1.20000000E+01  1.00782504E+00
  1.00782504E+00  1.00782504E+00  1.00782504E+00  1.00782504E+00  1.00782504E+00
  1.00782504E+00  3.49688527E+01
Atom fragment info                         I   N=          12
           0           0           0           0           0           0
           0           0           0           0           0           0
Atom residue num                           I   N=          12
           0           0           0           0           0           0
           0           0           0           0           0           0
Nuclear spins                              I   N=          12
           0           0           0           0           1           1
           1           1           1           1           1           3
Nuclear ZEff                               R   N=          12
 -3.60000000E+00 -3.60000000E+00 -3.60000000E+00 -3.60000000E+00 -1.00000000E+00
 -1.00000000E+00 -1.00000000E+00 -1.00000000E+00 -1.00000000E+00 -1.00000000E+00
 -1.00000000E+00 -1.42400000E+01
Nuclear ZNuc                               R   N=          12
  6.00000000E+00  6.00000000E+00  6.00000000E+00  6.00000000E+00  1.00000000E+00
  1.00000000E+00  1.00000000E+00  1.00000000E+00  1.00000000E+00  1.00000000E+00
  1.00000000E+00  1.70000000E+01
Nuclear QMom                               R   N=          12
  0.00000000E+00  0.00000000E+00  0.00000000E+00  0.00000000E+00  0.00000000E+00
  0.00000000E+00  0.00000000E+00  0.00000000E+00  0.00000000E+00  0.00000000E+00
  0.00000000E+00 -8.16500000E+00
Nuclear GFac                               R   N=          12
  0.00000000E+00  0.00000000E+00  0.00000000E+00  0.00000000E+00  2.79284600E+00
  2.79284600E+00  2.79284600E+00  2.79284600E+00  2.79284600E+00  2.79284600E+00
  2.79284600E+00  8.21874000E-01
MicOpt                                     I   N=          12
          -1          -1          -1          -1          -1          -1
          -1          -1          -1          -1          -1          -1
Number of residues                         I                0
Number of secondary structures             I                0
SymInf integers                            I   N=          26
           1           1           1           1           1           0
           0           0           0           0           0           0
           0           0           0           0           0           0
           0           0           0           0           0           0
           0           0
RotTr to input orientation                 R   N=          12
  9.99998137E-01 -1.93017445E-03  0.00000000E+00  1.93017445E-03  9.99998137E-01
  0.00000000E+00  0.00000000E+00  0.00000000E+00  1.00000000E+00  4.34968894E-04
  2.40693748E-03 -1.69049388E-04
Number of contracted shells                I               72
Number of primitive shells                 I              126
Pure/Cartesian d shells                    I                0
Pure/Cartesian f shells                    I                0
Highest angular momentum                   I                2
Largest degree of contraction              I                6
Shell types                                I   N=          72
           0          -1          -1          -1          -1          -2
           0          -1          -1          -1          -1          -2
           0          -1          -1          -1          -1          -2
           0          -1          -1          -1          -1          -2
           0           0           0           0           1           0
           0           0           0           1           0           0
           0           0           1           0           0           0
           0           1           0           0           0           0
           1           0           0           0           0           1
           0           0           0           0           1           0
           0           0           0           0           0          -1
           1           1           1           1           1          -2
Number of primitives per shell             I   N=          72
           6           3           1           1           1           1
           6           3           1           1           1           1
           6           3           1           1           1           1
           6           3           1           1           1           1
           3           1           1           1           1           3
           1           1           1           1           3           1
           1           1           1           3           1           1
           1           1           3           1           1           1
           1           3           1           1           1           1
           3           1           1           1           1           6
           3           1           1           1           1           1
           5           2           1           1           1           1
Shell to atom map                          I   N=          72
           1           1           1           1           1           1
           2           2           2           2           2           2
           3           3           3           3           3           3
           4           4           4           4           4           4
           5           5           5           5           5           6
           6           6           6           6           7           7
           7           7           7           8           8           8
           8           8           9           9           9           9
           9          10          10          10          10          10
          11          11          11          11          11          12
          12          12          12          12          12          12
          12          12          12          12          12          12
Primitive exponents                        R   N=         126
  4.56324000E+03  6.82024000E+02  1.54973000E+02  4.44553000E+01  1.30290000E+01
  1.82773000E+00  2.09642000E+01  4.80331000E+00  1.45933000E+00  4.83456000E-01
  1.45585000E-01  4.38000000E-02  6.26000000E-01  4.56324000E+03  6.82024000E+02
  1.54973000E+02  4.44553000E+01  1.30290000E+01  1.82773000E+00  2.09642000E+01
  4.80331000E+00  1.45933000E+00  4.83456000E-01  1.45585000E-01  4.38000000E-02
  6.26000000E-01  4.56324000E+03  6.82024000E+02  1.54973000E+02  4.44553000E+01
  1.30290000E+01  1.82773000E+00  2.09642000E+01  4.80331000E+00  1.45933000E+00
  4.83456000E-01  1.45585000E-01  4.38000000E-02  6.26000000E-01  4.56324000E+03
  6.82024000E+02  1.54973000E+02  4.44553000E+01  1.30290000E+01  1.82773000E+00
  2.09642000E+01  4.80331000E+00  1.45933000E+00  4.83456000E-01  1.45585000E-01
  4.38000000E-02  6.26000000E-01  3.38650000E+01  5.09479000E+00  1.15879000E+00
  3.25840000E-01  1.02741000E-01  3.60000000E-02  7.50000000E-01  3.38650000E+01
  5.09479000E+00  1.15879000E+00  3.25840000E-01  1.02741000E-01  3.60000000E-02
  7.50000000E-01  3.38650000E+01  5.09479000E+00  1.15879000E+00  3.25840000E-01
  1.02741000E-01  3.60000000E-02  7.50000000E-01  3.38650000E+01  5.09479000E+00
  1.15879000E+00  3.25840000E-01  1.02741000E-01  3.60000000E-02  7.50000000E-01
  3.38650000E+01  5.09479000E+00  1.15879000E+00  3.25840000E-01  1.02741000E-01
  3.60000000E-02  7.50000000E-01  3.38650000E+01  5.09479000E+00  1.15879000E+00
  3.25840000E-01  1.02741000E-01  3.60000000E-02  7.50000000E-01  3.38650000E+01
  5.09479000E+00  1.15879000E+00  3.25840000E-01  1.02741000E-01  3.60000000E-02
  7.50000000E-01  1.05819000E+05  1.58720000E+04  3.61965000E+03  1.03080000E+03
  3.39908000E+02  1.24538000E+02  1.24538000E+02  4.95135000E+01  2.08056000E+01
  6.58346000E+00  2.56468000E+00  5.59763000E-01  1.83273000E-01  4.83000000E-02
  5.89776000E+02  1.39849000E+02  4.51413000E+01  1.68733000E+01  2.77152000E+00
  6.74110000E+00  2.77152000E+00  1.02387000E+00  3.81368000E-01  1.09437000E-01
  7.50000000E-01
Contraction coefficients                   R   N=         126
  1.96665025E-03  1.52306019E-02  7.61269097E-02  2.60801033E-01  6.16462078E-01
  2.21006028E-01  1.14660081E-01  9.19999648E-01 -3.03068213E-03  1.00000000E+00
  1.00000000E+00  1.00000000E+00  1.00000000E+00  1.96665025E-03  1.52306019E-02
  7.61269097E-02  2.60801033E-01  6.16462078E-01  2.21006028E-01  1.14660081E-01
  9.19999648E-01 -3.03068213E-03  1.00000000E+00  1.00000000E+00  1.00000000E+00
  1.00000000E+00  1.96665025E-03  1.52306019E-02  7.61269097E-02  2.60801033E-01
  6.16462078E-01  2.21006028E-01  1.14660081E-01  9.19999648E-01 -3.03068213E-03
  1.00000000E+00  1.00000000E+00  1.00000000E+00  1.00000000E+00  1.96665025E-03
  1.52306019E-02  7.61269097E-02  2.60801033E-01  6.16462078E-01  2.21006028E-01
  1.14660081E-01  9.19999648E-01 -3.03068213E-03  1.00000000E+00  1.00000000E+00
  1.00000000E+00  1.00000000E+00  2.54938145E-02  1.90373109E-01  8.52161486E-01
  1.00000000E+00  1.00000000E+00  1.00000000E+00  1.00000000E+00  2.54938145E-02
  1.90373109E-01  8.52161486E-01  1.00000000E+00  1.00000000E+00  1.00000000E+00
  1.00000000E+00  2.54938145E-02  1.90373109E-01  8.52161486E-01  1.00000000E+00
  1.00000000E+00  1.00000000E+00  1.00000000E+00  2.54938145E-02  1.90373109E-01
  8.52161486E-01  1.00000000E+00  1.00000000E+00  1.00000000E+00  1.00000000E+00
  2.54938145E-02  1.90373109E-01  8.52161486E-01  1.00000000E+00  1.00000000E+00
  1.00000000E+00  1.00000000E+00  2.54938145E-02  1.90373109E-01  8.52161486E-01
  1.00000000E+00  1.00000000E+00  1.00000000E+00  1.00000000E+00  2.54938145E-02
  1.90373109E-01  8.52161486E-01  1.00000000E+00  1.00000000E+00  1.00000000E+00
  1.00000000E+00  7.38000247E-04  5.71800191E-03  2.94950099E-02  1.17286039E-01
  3.62949121E-01  5.84149195E-01  1.34176973E-01  6.24249876E-01  2.91755942E-01
  1.00000000E+00  1.00000000E+00  1.00000000E+00  1.00000000E+00  1.00000000E+00
  3.66556935E-03  2.83679194E-02  1.24756603E-01  3.39654631E-01  7.47585963E-01
 -1.57224381E+00  9.92388882E-01  1.00000000E+00  1.00000000E+00  1.00000000E+00
  1.00000000E+00
P(S=P) Contraction coefficients            R   N=         126
  0.00000000E+00  0.00000000E+00  0.00000000E+00  0.00000000E+00  0.00000000E+00
  0.00000000E+00  4.02486927E-02  2.37593957E-01  8.15853851E-01  1.00000000E+00
  1.00000000E+00  1.00000000E+00  0.00000000E+00  0.00000000E+00  0.00000000E+00
  0.00000000E+00  0.00000000E+00  0.00000000E+00  0.00000000E+00  4.02486927E-02
  2.37593957E-01  8.15853851E-01  1.00000000E+00  1.00000000E+00  1.00000000E+00
  0.00000000E+00  0.00000000E+00  0.00000000E+00  0.00000000E+00  0.00000000E+00
  0.00000000E+00  0.00000000E+00  4.02486927E-02  2.37593957E-01  8.15853851E-01
  1.00000000E+00  1.00000000E+00  1.00000000E+00  0.00000000E+00  0.00000000E+00
  0.00000000E+00  0.00000000E+00  0.00000000E+00  0.00000000E+00  0.00000000E+00
  4.02486927E-02  2.37593957E-01  8.15853851E-01  1.00000000E+00  1.00000000E+00
  1.00000000E+00  0.00000000E+00  0.00000000E+00  0.00000000E+00  0.00000000E+00
  0.00000000E+00  0.00000000E+00  0.00000000E+00  0.00000000E+00  0.00000000E+00
  0.00000000E+00  0.00000000E+00  0.00000000E+00  0.00000000E+00  0.00000000E+00
  0.00000000E+00  0.00000000E+00  0.00000000E+00  0.00000000E+00  0.00000000E+00
  0.00000000E+00  0.00000000E+00  0.00000000E+00  0.00000000E+00  0.00000000E+00
  0.00000000E+00  0.00000000E+00  0.00000000E+00  0.00000000E+00  0.00000000E+00
  0.00000000E+00  0.00000000E+00  0.00000000E+00  0.00000000E+00  0.00000000E+00
  0.00000000E+00  0.00000000E+00  0.00000000E+00  0.00000000E+00  0.00000000E+00
  0.00000000E+00  0.00000000E+00  0.00000000E+00  0.00000000E+00  0.00000000E+00
  0.00000000E+00  0.00000000E+00  0.00000000E+00  0.00000000E+00  0.00000000E+00
  0.00000000E+00  0.00000000E+00  0.00000000E+00  0.00000000E+00  0.00000000E+00
  0.00000000E+00  0.00000000E+00  0.00000000E+00  0.00000000E+00  0.00000000E+00
  0.00000000E+00  0.00000000E+00  0.00000000E+00  0.00000000E+00  1.00000000E+00
  0.00000000E+00  0.00000000E+00  0.00000000E+00  0.00000000E+00  0.00000000E+00
  0.00000000E+00  0.00000000E+00  0.00000000E+00  0.00000000E+00  0.00000000E+00
  0.00000000E+00
Coordinates of each shell                  R   N=         216
  8.80606714E-01  3.34268188E+00  7.78718857E-02  8.80606714E-01  3.34268188E+00
  7.78718857E-02  8.80606714E-01  3.34268188E+00  7.78718857E-02  8.80606714E-01
  3.34268188E+00  7.78718857E-02  8.80606714E-01  3.34268188E+00  7.78718857E-02
  8.80606714E-01  3.34268188E+00  7.78718857E-02 -2.87448461E-02  6.82876928E-01
 -6.35919268E-01 -2.87448461E-02  6.82876928E-01 -6.35919268E-01 -2.87448461E-02
  6.82876928E-01 -6.35919268E-01 -2.87448461E-02  6.82876928E-01 -6.35919268E-01
 -2.87448461E-02  6.82876928E-01 -6.35919268E-01 -2.87448461E-02  6.82876928E-01
 -6.35919268E-01 -2.25758218E+00 -2.47028032E-01  8.13360345E-01 -2.25758218E+00
 -2.47028032E-01  8.13360345E-01 -2.25758218E+00 -2.47028032E-01  8.13360345E-01
 -2.25758218E+00 -2.47028032E-01  8.13360345E-01 -2.25758218E+00 -2.47028032E-01
  8.13360345E-01 -2.25758218E+00 -2.47028032E-01  8.13360345E-01 -4.40486804E+00
 -9.46092183E-01 -2.93549572E-01 -4.40486804E+00 -9.46092183E-01 -2.93549572E-01
 -4.40486804E+00 -9.46092183E-01 -2.93549572E-01 -4.40486804E+00 -9.46092183E-01
 -2.93549572E-01 -4.40486804E+00 -9.46092183E-01 -2.93549572E-01 -4.40486804E+00
 -9.46092183E-01 -2.93549572E-01 -4.52000109E+00 -1.16151773E+00 -2.33478333E+00
 -4.52000109E+00 -1.16151773E+00 -2.33478333E+00 -4.52000109E+00 -1.16151773E+00
 -2.33478333E+00 -4.52000109E+00 -1.16151773E+00 -2.33478333E+00 -4.52000109E+00
 -1.16151773E+00 -2.33478333E+00  2.60825211E+00  3.79331936E+00 -9.55985150E-01
  2.60825211E+00  3.79331936E+00 -9.55985150E-01  2.60825211E+00  3.79331936E+00
 -9.55985150E-01  2.60825211E+00  3.79331936E+00 -9.55985150E-01  2.60825211E+00
  3.79331936E+00 -9.55985150E-01 -6.11908703E+00 -1.31013220E+00  7.85451207E-01
 -6.11908703E+00 -1.31013220E+00  7.85451207E-01 -6.11908703E+00 -1.31013220E+00
  7.85451207E-01 -6.11908703E+00 -1.31013220E+00  7.85451207E-01 -6.11908703E+00
 -1.31013220E+00  7.85451207E-01 -2.13533784E+00 -5.79611072E-02  2.85901719E+00
 -2.13533784E+00 -5.79611072E-02  2.85901719E+00 -2.13533784E+00 -5.79611072E-02
  2.85901719E+00 -2.13533784E+00 -5.79611072E-02  2.85901719E+00 -2.13533784E+00
 -5.79611072E-02  2.85901719E+00 -3.37396451E-01  5.07814644E-01 -2.66375437E+00
 -3.37396451E-01  5.07814644E-01 -2.66375437E+00 -3.37396451E-01  5.07814644E-01
 -2.66375437E+00 -3.37396451E-01  5.07814644E-01 -2.66375437E+00 -3.37396451E-01
  5.07814644E-01 -2.66375437E+00  1.29297103E+00  3.44678143E+00  2.09796212E+00
  1.29297103E+00  3.44678143E+00  2.09796212E+00  1.29297103E+00  3.44678143E+00
  2.09796212E+00  1.29297103E+00  3.44678143E+00  2.09796212E+00  1.29297103E+00
  3.44678143E+00  2.09796212E+00 -5.57395741E-01  4.75901357E+00 -3.80237527E-01
 -5.57395741E-01  4.75901357E+00 -3.80237527E-01 -5.57395741E-01  4.75901357E+00
 -3.80237527E-01 -5.57395741E-01  4.75901357E+00 -3.80237527E-01 -5.57395741E-01
  4.75901357E+00 -3.80237527E-01  2.62538383E+00 -1.58658527E+00  4.83382063E-02
  2.62538383E+00 -1.58658527E+00  4.83382063E-02  2.62538383E+00 -1.58658527E+00
  4.83382063E-02  2.62538383E+00 -1.58658527E+00  4.83382063E-02  2.62538383E+00
 -1.58658527E+00  4.83382063E-02  2.62538383E+00 -1.58658527E+00  4.83382063E-02
  2.62538383E+00 -1.58658527E+00  4.83382063E-02  2.62538383E+00 -1.58658527E+00
  4.83382063E-02  2.62538383E+00 -1.58658527E+00  4.83382063E-02  2.62538383E+00
 -1.58658527E+00  4.83382063E-02  2.62538383E+00 -1.58658527E+00  4.83382063E-02
  2.62538383E+00 -1.58658527E+00  4.83382063E-02  2.62538383E+00 -1.58658527E+00
  4.83382063E-02
Constraint Structure                       R   N=          36
  8.80606714E-01  3.34268188E+00  7.78718857E-02 -2.87448461E-02  6.82876928E-01
 -6.35919268E-01 -2.25758218E+00 -2.47028032E-01  8.13360345E-01 -4.40486804E+00
 -9.46092183E-01 -2.93549572E-01 -4.52000109E+00 -1.16151773E+00 -2.33478333E+00
  2.60825211E+00  3.79331936E+00 -9.55985150E-01 -6.11908703E+00 -1.31013220E+00
  7.85451207E-01 -2.13533784E+00 -5.79611072E-02  2.85901719E+00 -3.37396451E-01
  5.07814644E-01 -2.66375437E+00  1.29297103E+00  3.44678143E+00  2.09796212E+00
 -5.57395741E-01  4.75901357E+00 -3.80237527E-01  2.62538383E+00 -1.58658527E+00
  4.83382063E-02
Num ILSW                                   I              100
ILSW                                       I   N=         100
           0           0           0           0           2           0
           0           0           0           0         402          -1
           5           0           0           0           0           0
           0           0           0           0           0           0
           1           0           0           0           0           0
           0           0      100000           0          -1           0
           0           0           0           0           0           0
           0           0           0           1           0           0
           0           0           1           0           0           0
           0           0           4          41           0           0
           0           0           5           0           0           0
           0           0           0           0           0           0
           0           0           0           0           0           0
           0           0           0           0           0           0
           0           0           0           0           0           0
           0           0           0           0           0           0
           0           0           0           0
Num RLSW                                   I               41
RLSW                                       R   N=          41
  8.00000000E-01  7.20000000E-01  1.00000000E+00  8.10000000E-01  2.00000000E-01
  0.00000000E+00  0.00000000E+00  1.00000000E+00  0.00000000E+00  0.00000000E+00
  0.00000000E+00  0.00000000E+00  1.00000000E+00  0.00000000E+00  0.00000000E+00
  0.00000000E+00  0.00000000E+00  1.00000000E+00  0.00000000E+00  0.00000000E+00
  0.00000000E+00  0.00000000E+00  1.00000000E+00  0.00000000E+00  0.00000000E+00
  0.00000000E+00  0.00000000E+00  1.00000000E+00  0.00000000E+00  0.00000000E+00
  0.00000000E+00  0.00000000E+00  0.00000000E+00  0.00000000E+00  0.00000000E+00
  0.00000000E+00  0.00000000E+00  0.00000000E+00  1.00000000E+00  1.00000000E+00
  0.00000000E+00
MxBond                                     I                4
NBond                                      I   N=          12
           4           4           3           3           1           1
           1           1           1           1           1           1
IBond                                      I   N=          48
           2           6          10          11           1           3
           9          12           2           4           8           0
           3           5           7           0           4           0
           0           0           1           0           0           0
           4           0           0           0           3           0
           0           0           2           0           0           0
           1           0           0           0           1           0
           0           0           2           0           0           0
RBond                                      R   N=          48
  1.00000000E+00  1.00000000E+00  1.00000000E+00  1.00000000E+00  1.00000000E+00
  1.00000000E+00  1.00000000E+00  1.00000000E+00  1.00000000E+00  2.00000000E+00
  1.00000000E+00  0.00000000E+00  2.00000000E+00  1.00000000E+00  1.00000000E+00
  0.00000000E+00  1.00000000E+00  0.00000000E+00  0.00000000E+00  0.00000000E+00
  1.00000000E+00  0.00000000E+00  0.00000000E+00  0.00000000E+00  1.00000000E+00
  0.00000000E+00  0.00000000E+00  0.00000000E+00  1.00000000E+00  0.00000000E+00
  0.00000000E+00  0.00000000E+00  1.00000000E+00  0.00000000E+00  0.00000000E+00
  0.00000000E+00  1.00000000E+00  0.00000000E+00  0.00000000E+00  0.00000000E+00
  1.00000000E+00  0.00000000E+00  0.00000000E+00  0.00000000E+00  1.00000000E+00
  0.00000000E+00  0.00000000E+00  0.00000000E+00
Virial Ratio                               R      2.003141639703530E+00
SCF Energy                                 R     -6.168940912515061E+02
Total Energy                               R     -6.168940912515061E+02
RMS Density                                R      6.602760793181270E-12
Nuclear derivative order                   I                0
External E-field                           R   N=          35
  0.00000000E+00  0.00000000E+00  0.00000000E+00  0.00000000E+00  0.00000000E+00
  0.00000000E+00  0.00000000E+00  0.00000000E+00  0.00000000E+00  0.00000000E+00
  0.00000000E+00  0.00000000E+00  0.00000000E+00  0.00000000E+00  0.00000000E+00
  0.00000000E+00  0.00000000E+00  0.00000000E+00  0.00000000E+00  0.00000000E+00
  0.00000000E+00  0.00000000E+00  0.00000000E+00  0.00000000E+00  0.00000000E+00
  0.00000000E+00  0.00000000E+00  0.00000000E+00  0.00000000E+00  0.00000000E+00
  0.00000000E+00  0.00000000E+00  0.00000000E+00  0.00000000E+00  0.00000000E+00
IOpCl                                      I                0
IROHF                                      I                0
Alpha Orbital Energies                     R   N=         167
 -1.01531355E+02 -1.02505294E+01 -1.01952014E+01 -1.01856711E+01 -1.01841168E+01
 -9.44551602E+00 -7.20981095E+00 -7.20048878E+00 -7.20033462E+00 -8.63127260E-01
 -7.85867653E-01 -7.41500315E-01 -6.41340038E-01 -5.78521110E-01 -4.85120489E-01
 -4.75332933E-01 -4.44504466E-01 -4.14956102E-01 -4.03321572E-01 -3.76381364E-01
 -3.66633593E-01 -3.06566199E-01 -2.97642386E-01 -2.78035294E-01 -3.49348981E-02
 -8.28482527E-03  5.21331635E-03  6.94755095E-03  1.74674599E-02  2.82082861E-02
  3.88079615E-02  4.07966272E-02  6.28659462E-02  6.48337920E-02  7.29026369E-02
  8.24031548E-02  8.71791474E-02  9.76797194E-02  1.09275269E-01  1.15543283E-01
  1.18671903E-01  1.22021183E-01  1.29121436E-01  1.30437087E-01  1.34979893E-01
  1.41632826E-01  1.51132512E-01  1.56135126E-01  1.59868878E-01  1.63898882E-01
  1.71536540E-01  1.88457067E-01  1.92574550E-01  2.12444741E-01  2.15963567E-01
  2.26709503E-01  2.41579238E-01  2.60481117E-01  2.68657693E-01  2.89542666E-01
  3.39214270E-01  3.54660743E-01  3.89756427E-01  4.25138440E-01  4.31230613E-01
  4.45377109E-01  4.56816220E-01  4.76675074E-01  4.89037499E-01  4.98053997E-01
  5.25344589E-01  5.28803741E-01  5.66503733E-01  5.84744520E-01  5.93850564E-01
  6.20013649E-01  6.34409271E-01  6.47523786E-01  6.57948291E-01  6.59772460E-01
  6.87670084E-01  6.95601993E-01  7.36081778E-01  7.36670767E-01  7.67591320E-01
  8.17263344E-01  8.29537271E-01  8.69335453E-01  8.89216418E-01  9.01367904E-01
  9.44428397E-01  9.69147204E-01  1.00131332E+00  1.03536682E+00  1.06176620E+00
  1.07812451E+00  1.13001954E+00  1.17103853E+00  1.19808258E+00  1.28911137E+00
  1.38135218E+00  1.42482695E+00  1.45023131E+00  1.46891590E+00  1.50937548E+00
  1.54041308E+00  1.55655181E+00  1.58064172E+00  1.59247988E+00  1.62951179E+00
  1.66284966E+00  1.68356729E+00  1.69591796E+00  1.71530667E+00  1.76818595E+00
  1.78738208E+00  1.86431686E+00  1.88948709E+00  1.92823169E+00  1.97506301E+00
  2.02070403E+00  2.06816377E+00  2.11257768E+00  2.18031914E+00  2.18946207E+00
  2.19997479E+00  2.24449735E+00  2.29688211E+00  2.30454148E+00  2.35249944E+00
  2.37188797E+00  2.45063898E+00  2.45738251E+00  2.48496388E+00  2.52332210E+00
  2.56373420E+00  2.57322781E+00  2.58366524E+00  2.59537886E+00  2.62784410E+00
  2.72828334E+00  2.73948154E+00  2.74173381E+00  2.78406682E+00  2.84341209E+00
  2.85849431E+00  2.92451172E+00  3.07815362E+00  3.08749094E+00  3.17015465E+00
  3.38627815E+00  3.50356885E+00  3.71152836E+00  3.78795767E+00  3.79281386E+00
  3.93753997E+00  4.11107438E+00  4.27030748E+00  9.75509279E+00  2.37122813E+01
  2.37883284E+01  2.39393992E+01  2.42502992E+01  2.59281508E+01  2.59756514E+01
  2.64354173E+01  2.15744893E+02
Alpha MO coefficients                      R   N=       27889
  2.84067598E-07 -6.66055361E-07 -2.32413528E-06 -1.37218963E-06 -1.27795835E-06
  2.77970393E-07  1.85825325E-05  1.11895234E-05  9.61828129E-06  2.01526168E-05
  4.49481049E-05  2.51172676E-05  2.22473828E-05 -1.75268603E-03 -1.41072739E-04
  5.56436165E-04  9.41835584E-06  7.30188293E-06 -2.92745427E-06 -4.00253964E-06
  1.22504622E-05  7.34920591E-07  1.49909330E-06 -3.23553680E-06  9.72670824E-06
 -9.49179289E-06  5.52088336E-06 -1.52590623E-05 -8.11225377E-06  1.29172154E-05
 -2.15024331E-05  1.45518769E-04  1.15551925E-04 -1.11188993E-04 -8.76423353E-06
  3.77608535E-03 -3.74627801E-04  4.45831809E-04  9.35228607E-04  8.11364830E-06
  5.21870470E-07  2.87925624E-06 -1.57969833E-06  2.80001659E-06 -4.42698302E-07
  1.29924805E-06  3.35443940E-06 -2.87564684E-06 -3.70521300E-06 -7.29908776E-06
 -2.23885361E-05  1.18296071E-05  2.31624536E-05  8.21131457E-06  2.84554390E-05
 -1.45177281E-05 -5.49777806E-05 -9.32193060E-04 -1.28637468E-03 -4.20726560E-04
 -1.43156414E-04  4.90103918E-06  4.12965497E-06 -4.87410457E-06  2.53506614E-06
 -4.16076232E-06  4.07113703E-07 -1.19813718E-06 -1.79373957E-06  6.86991303E-07
  6.76524743E-07  1.09253203E-05  7.66521382E-06 -2.38399266E-06  1.65039434E-06
 -4.65521461E-05 -8.22117404E-05 -1.02182194E-05  6.79942696E-05 -1.89009161E-03
 -3.53187312E-04 -1.63749795E-04 -1.89867603E-04 -5.48825053E-06 -2.40485385E-06
 -4.36400210E-06 -1.30565475E-06 -1.36569373E-06 -2.75586974E-06  3.56393565E-05
  6.21319724E-05  9.30860385E-06  5.69084411E-06  3.77478450E-08  6.57888591E-06
  1.25124744E-05 -8.54218189E-05  7.11624841E-05  1.99949405E-04  8.05571538E-06
  1.32102852E-05 -1.12304842E-05  3.66580107E-06 -2.92191310E-05 -2.77562912E-05
 -8.05638230E-05 -1.98481806E-06  2.82391548E-07  1.14124923E-06  7.25989929E-06
 -3.71207258E-05  6.44393274E-05  1.59259349E-04 -1.20414720E-05  2.03159638E-06
  1.27678111E-05  5.02539171E-07 -6.67421461E-05 -8.92982811E-05  2.02452129E-04
 -7.44580336E-06  2.62655472E-06 -1.62329778E-05  1.07775676E-05 -6.79471496E-05
 -1.17842641E-05  1.00781993E-04 -4.68484456E-06  1.28023863E-05  1.58254755E-05
 -7.74887707E-06  4.07376158E-05 -1.33361902E-04 -3.26890681E-04  8.14988297E-07
 -4.90661841E-06 -3.84827318E-07  4.11609762E-01  6.54076426E-01  1.50026731E-02