(R)-3-chloro-1-butene tau=120                                           
SP        RB3LYP                                                      6-311++G(d,p)       
Number of atoms                            I               12
Info1-9                                    I   N=           9
          26          26           0           0           0         110
           1          18        -502
Full Title                                 C   N=           3
(R)-3-chloro-1-butene tau=120       
Route                                      C   N=           7
#P B3LYP/6-311++G** scf(conver=11) int=ultrafine polar=optro
t cphf(rdfreq,conver=11)
Charge                                     I                0
Multiplicity                               I                1
Number of electrons                        I               48
Number of alpha electrons                  I               24
Number of beta electrons                   I               24
Number of basis functions                  I              167
Number of independent functions            I              167
Number of point charges in /Mol/           I                0
Number of translation vectors              I                0
Atomic numbers                             I   N=          12
           6           6           6           6           1           1
           1           1           1           1           1          17
Nuclear charges                            R   N=          12
  6.00000000E+00  6.00000000E+00  6.00000000E+00  6.00000000E+00  1.00000000E+00
  1.00000000E+00  1.00000000E+00  1.00000000E+00  1.00000000E+00  1.00000000E+00
  1.00000000E+00  1.70000000E+01
Current cartesian coordinates              R   N=          36
  6.19598426E-01  3.41206666E+00  3.41892852E-02 -3.91641599E-03  6.56109947E-01
 -5.30324546E-01 -2.25628632E+00 -2.70901866E-01  8.85958211E-01 -4.27361401E+00
 -1.13011109E+00 -3.48413531E-01 -4.27297721E+00 -1.25800972E+00 -2.40329524E+00
  2.27535652E+00  4.04764329E+00 -1.01965988E+00 -5.98046397E+00 -1.73764956E+00
  6.19327326E-01 -2.21060991E+00 -1.46217852E-01  2.93779102E+00 -3.35449488E-01
  4.21793229E-01 -2.54862183E+00  9.53777163E-01  3.73461714E+00  2.05117920E+00
 -1.01014144E+00  4.55769737E+00 -5.50277350E-01  2.70975402E+00 -1.50722681E+00
  3.91235433E-02
Number of symbols in /Mol/                 I                0
Force Field                                I                0
Atom Types                                 C   N=          12
                                                            
                                                            
                        
Int Atom Types                             I   N=          12
           0           0           0           0           0           0
           0           0           0           0           0           0
MM charges                                 R   N=          12
  0.00000000E+00  0.00000000E+00  0.00000000E+00  0.00000000E+00  0.00000000E+00
  0.00000000E+00  0.00000000E+00  0.00000000E+00  0.00000000E+00  0.00000000E+00
  0.00000000E+00  0.00000000E+00
Integer atomic weights                     I   N=          12
          12          12          12          12           1           1
           1           1           1           1           1          35
Real atomic weights                        R   N=          12
  1.20000000E+01  1.20000000E+01  1.20000000E+01  1.20000000E+01  1.00782504E+00
  1.00782504E+00  1.00782504E+00  1.00782504E+00  1.00782504E+00  1.00782504E+00
  1.00782504E+00  3.49688527E+01
Atom fragment info                         I   N=          12
           0           0           0           0           0           0
           0           0           0           0           0           0
Atom residue num                           I   N=          12
           0           0           0           0           0           0
           0           0           0           0           0           0
Nuclear spins                              I   N=          12
           0           0           0           0           1           1
           1           1           1           1           1           3
Nuclear ZEff                               R   N=          12
 -3.60000000E+00 -3.60000000E+00 -3.60000000E+00 -3.60000000E+00 -1.00000000E+00
 -1.00000000E+00 -1.00000000E+00 -1.00000000E+00 -1.00000000E+00 -1.00000000E+00
 -1.00000000E+00 -1.42400000E+01
Nuclear ZNuc                               R   N=          12
  6.00000000E+00  6.00000000E+00  6.00000000E+00  6.00000000E+00  1.00000000E+00
  1.00000000E+00  1.00000000E+00  1.00000000E+00  1.00000000E+00  1.00000000E+00
  1.00000000E+00  1.70000000E+01
Nuclear QMom                               R   N=          12
  0.00000000E+00  0.00000000E+00  0.00000000E+00  0.00000000E+00  0.00000000E+00
  0.00000000E+00  0.00000000E+00  0.00000000E+00  0.00000000E+00  0.00000000E+00
  0.00000000E+00 -8.16500000E+00
Nuclear GFac                               R   N=          12
  0.00000000E+00  0.00000000E+00  0.00000000E+00  0.00000000E+00  2.79284600E+00
  2.79284600E+00  2.79284600E+00  2.79284600E+00  2.79284600E+00  2.79284600E+00
  2.79284600E+00  8.21874000E-01
MicOpt                                     I   N=          12
          -1          -1          -1          -1          -1          -1
          -1          -1          -1          -1          -1          -1
Number of residues                         I                0
Number of secondary structures             I                0
SymInf integers                            I   N=          26
           1           1           1           1           1           0
           0           0           0           0           0           0
           0           0           0           0           0           0
           0           0           0           0           0           0
           0           0
RotTr to input orientation                 R   N=          12
  9.98703206E-01 -5.07940640E-02 -3.44514414E-03  5.08118985E-02  9.98694160E-01
  5.30336741E-03  3.17126575E-03 -5.47154435E-03  9.99980002E-01 -3.30619043E-03
  4.65347934E-03 -2.45947856E-03
Number of contracted shells                I               72
Number of primitive shells                 I              126
Pure/Cartesian d shells                    I                0
Pure/Cartesian f shells                    I                0
Highest angular momentum                   I                2
Largest degree of contraction              I                6
Shell types                                I   N=          72
           0          -1          -1          -1          -1          -2
           0          -1          -1          -1          -1          -2
           0          -1          -1          -1          -1          -2
           0          -1          -1          -1          -1          -2
           0           0           0           0           1           0
           0           0           0           1           0           0
           0           0           1           0           0           0
           0           1           0           0           0           0
           1           0           0           0           0           1
           0           0           0           0           1           0
           0           0           0           0           0          -1
           1           1           1           1           1          -2
Number of primitives per shell             I   N=          72
           6           3           1           1           1           1
           6           3           1           1           1           1
           6           3           1           1           1           1
           6           3           1           1           1           1
           3           1           1           1           1           3
           1           1           1           1           3           1
           1           1           1           3           1           1
           1           1           3           1           1           1
           1           3           1           1           1           1
           3           1           1           1           1           6
           3           1           1           1           1           1
           5           2           1           1           1           1
Shell to atom map                          I   N=          72
           1           1           1           1           1           1
           2           2           2           2           2           2
           3           3           3           3           3           3
           4           4           4           4           4           4
           5           5           5           5           5           6
           6           6           6           6           7           7
           7           7           7           8           8           8
           8           8           9           9           9           9
           9          10          10          10          10          10
          11          11          11          11          11          12
          12          12          12          12          12          12
          12          12          12          12          12          12
Primitive exponents                        R   N=         126
  4.56324000E+03  6.82024000E+02  1.54973000E+02  4.44553000E+01  1.30290000E+01
  1.82773000E+00  2.09642000E+01  4.80331000E+00  1.45933000E+00  4.83456000E-01
  1.45585000E-01  4.38000000E-02  6.26000000E-01  4.56324000E+03  6.82024000E+02
  1.54973000E+02  4.44553000E+01  1.30290000E+01  1.82773000E+00  2.09642000E+01
  4.80331000E+00  1.45933000E+00  4.83456000E-01  1.45585000E-01  4.38000000E-02
  6.26000000E-01  4.56324000E+03  6.82024000E+02  1.54973000E+02  4.44553000E+01
  1.30290000E+01  1.82773000E+00  2.09642000E+01  4.80331000E+00  1.45933000E+00
  4.83456000E-01  1.45585000E-01  4.38000000E-02  6.26000000E-01  4.56324000E+03
  6.82024000E+02  1.54973000E+02  4.44553000E+01  1.30290000E+01  1.82773000E+00
  2.09642000E+01  4.80331000E+00  1.45933000E+00  4.83456000E-01  1.45585000E-01
  4.38000000E-02  6.26000000E-01  3.38650000E+01  5.09479000E+00  1.15879000E+00
  3.25840000E-01  1.02741000E-01  3.60000000E-02  7.50000000E-01  3.38650000E+01
  5.09479000E+00  1.15879000E+00  3.25840000E-01  1.02741000E-01  3.60000000E-02
  7.50000000E-01  3.38650000E+01  5.09479000E+00  1.15879000E+00  3.25840000E-01
  1.02741000E-01  3.60000000E-02  7.50000000E-01  3.38650000E+01  5.09479000E+00
  1.15879000E+00  3.25840000E-01  1.02741000E-01  3.60000000E-02  7.50000000E-01
  3.38650000E+01  5.09479000E+00  1.15879000E+00  3.25840000E-01  1.02741000E-01
  3.60000000E-02  7.50000000E-01  3.38650000E+01  5.09479000E+00  1.15879000E+00
  3.25840000E-01  1.02741000E-01  3.60000000E-02  7.50000000E-01  3.38650000E+01
  5.09479000E+00  1.15879000E+00  3.25840000E-01  1.02741000E-01  3.60000000E-02
  7.50000000E-01  1.05819000E+05  1.58720000E+04  3.61965000E+03  1.03080000E+03
  3.39908000E+02  1.24538000E+02  1.24538000E+02  4.95135000E+01  2.08056000E+01
  6.58346000E+00  2.56468000E+00  5.59763000E-01  1.83273000E-01  4.83000000E-02
  5.89776000E+02  1.39849000E+02  4.51413000E+01  1.68733000E+01  2.77152000E+00
  6.74110000E+00  2.77152000E+00  1.02387000E+00  3.81368000E-01  1.09437000E-01
  7.50000000E-01
Contraction coefficients                   R   N=         126
  1.96665025E-03  1.52306019E-02  7.61269097E-02  2.60801033E-01  6.16462078E-01
  2.21006028E-01  1.14660081E-01  9.19999648E-01 -3.03068213E-03  1.00000000E+00
  1.00000000E+00  1.00000000E+00  1.00000000E+00  1.96665025E-03  1.52306019E-02
  7.61269097E-02  2.60801033E-01  6.16462078E-01  2.21006028E-01  1.14660081E-01
  9.19999648E-01 -3.03068213E-03  1.00000000E+00  1.00000000E+00  1.00000000E+00
  1.00000000E+00  1.96665025E-03  1.52306019E-02  7.61269097E-02  2.60801033E-01
  6.16462078E-01  2.21006028E-01  1.14660081E-01  9.19999648E-01 -3.03068213E-03
  1.00000000E+00  1.00000000E+00  1.00000000E+00  1.00000000E+00  1.96665025E-03
  1.52306019E-02  7.61269097E-02  2.60801033E-01  6.16462078E-01  2.21006028E-01
  1.14660081E-01  9.19999648E-01 -3.03068213E-03  1.00000000E+00  1.00000000E+00
  1.00000000E+00  1.00000000E+00  2.54938145E-02  1.90373109E-01  8.52161486E-01
  1.00000000E+00  1.00000000E+00  1.00000000E+00  1.00000000E+00  2.54938145E-02
  1.90373109E-01  8.52161486E-01  1.00000000E+00  1.00000000E+00  1.00000000E+00
  1.00000000E+00  2.54938145E-02  1.90373109E-01  8.52161486E-01  1.00000000E+00
  1.00000000E+00  1.00000000E+00  1.00000000E+00  2.54938145E-02  1.90373109E-01
  8.52161486E-01  1.00000000E+00  1.00000000E+00  1.00000000E+00  1.00000000E+00
  2.54938145E-02  1.90373109E-01  8.52161486E-01  1.00000000E+00  1.00000000E+00
  1.00000000E+00  1.00000000E+00  2.54938145E-02  1.90373109E-01  8.52161486E-01
  1.00000000E+00  1.00000000E+00  1.00000000E+00  1.00000000E+00  2.54938145E-02
  1.90373109E-01  8.52161486E-01  1.00000000E+00  1.00000000E+00  1.00000000E+00
  1.00000000E+00  7.38000247E-04  5.71800191E-03  2.94950099E-02  1.17286039E-01
  3.62949121E-01  5.84149195E-01  1.34176973E-01  6.24249876E-01  2.91755942E-01
  1.00000000E+00  1.00000000E+00  1.00000000E+00  1.00000000E+00  1.00000000E+00
  3.66556935E-03  2.83679194E-02  1.24756603E-01  3.39654631E-01  7.47585963E-01
 -1.57224381E+00  9.92388882E-01  1.00000000E+00  1.00000000E+00  1.00000000E+00
  1.00000000E+00
P(S=P) Contraction coefficients            R   N=         126
  0.00000000E+00  0.00000000E+00  0.00000000E+00  0.00000000E+00  0.00000000E+00
  0.00000000E+00  4.02486927E-02  2.37593957E-01  8.15853851E-01  1.00000000E+00
  1.00000000E+00  1.00000000E+00  0.00000000E+00  0.00000000E+00  0.00000000E+00
  0.00000000E+00  0.00000000E+00  0.00000000E+00  0.00000000E+00  4.02486927E-02
  2.37593957E-01  8.15853851E-01  1.00000000E+00  1.00000000E+00  1.00000000E+00
  0.00000000E+00  0.00000000E+00  0.00000000E+00  0.00000000E+00  0.00000000E+00
  0.00000000E+00  0.00000000E+00  4.02486927E-02  2.37593957E-01  8.15853851E-01
  1.00000000E+00  1.00000000E+00  1.00000000E+00  0.00000000E+00  0.00000000E+00
  0.00000000E+00  0.00000000E+00  0.00000000E+00  0.00000000E+00  0.00000000E+00
  4.02486927E-02  2.37593957E-01  8.15853851E-01  1.00000000E+00  1.00000000E+00
  1.00000000E+00  0.00000000E+00  0.00000000E+00  0.00000000E+00  0.00000000E+00
  0.00000000E+00  0.00000000E+00  0.00000000E+00  0.00000000E+00  0.00000000E+00
  0.00000000E+00  0.00000000E+00  0.00000000E+00  0.00000000E+00  0.00000000E+00
  0.00000000E+00  0.00000000E+00  0.00000000E+00  0.00000000E+00  0.00000000E+00
  0.00000000E+00  0.00000000E+00  0.00000000E+00  0.00000000E+00  0.00000000E+00
  0.00000000E+00  0.00000000E+00  0.00000000E+00  0.00000000E+00  0.00000000E+00
  0.00000000E+00  0.00000000E+00  0.00000000E+00  0.00000000E+00  0.00000000E+00
  0.00000000E+00  0.00000000E+00  0.00000000E+00  0.00000000E+00  0.00000000E+00
  0.00000000E+00  0.00000000E+00  0.00000000E+00  0.00000000E+00  0.00000000E+00
  0.00000000E+00  0.00000000E+00  0.00000000E+00  0.00000000E+00  0.00000000E+00
  0.00000000E+00  0.00000000E+00  0.00000000E+00  0.00000000E+00  0.00000000E+00
  0.00000000E+00  0.00000000E+00  0.00000000E+00  0.00000000E+00  0.00000000E+00
  0.00000000E+00  0.00000000E+00  0.00000000E+00  0.00000000E+00  1.00000000E+00
  0.00000000E+00  0.00000000E+00  0.00000000E+00  0.00000000E+00  0.00000000E+00
  0.00000000E+00  0.00000000E+00  0.00000000E+00  0.00000000E+00  0.00000000E+00
  0.00000000E+00
Coordinates of each shell                  R   N=         216
  6.19598426E-01  3.41206666E+00  3.41892852E-02  6.19598426E-01  3.41206666E+00
  3.41892852E-02  6.19598426E-01  3.41206666E+00  3.41892852E-02  6.19598426E-01
  3.41206666E+00  3.41892852E-02  6.19598426E-01  3.41206666E+00  3.41892852E-02
  6.19598426E-01  3.41206666E+00  3.41892852E-02 -3.91641599E-03  6.56109947E-01
 -5.30324546E-01 -3.91641599E-03  6.56109947E-01 -5.30324546E-01 -3.91641599E-03
  6.56109947E-01 -5.30324546E-01 -3.91641599E-03  6.56109947E-01 -5.30324546E-01
 -3.91641599E-03  6.56109947E-01 -5.30324546E-01 -3.91641599E-03  6.56109947E-01
 -5.30324546E-01 -2.25628632E+00 -2.70901866E-01  8.85958211E-01 -2.25628632E+00
 -2.70901866E-01  8.85958211E-01 -2.25628632E+00 -2.70901866E-01  8.85958211E-01
 -2.25628632E+00 -2.70901866E-01  8.85958211E-01 -2.25628632E+00 -2.70901866E-01
  8.85958211E-01 -2.25628632E+00 -2.70901866E-01  8.85958211E-01 -4.27361401E+00
 -1.13011109E+00 -3.48413531E-01 -4.27361401E+00 -1.13011109E+00 -3.48413531E-01
 -4.27361401E+00 -1.13011109E+00 -3.48413531E-01 -4.27361401E+00 -1.13011109E+00
 -3.48413531E-01 -4.27361401E+00 -1.13011109E+00 -3.48413531E-01 -4.27361401E+00
 -1.13011109E+00 -3.48413531E-01 -4.27297721E+00 -1.25800972E+00 -2.40329524E+00
 -4.27297721E+00 -1.25800972E+00 -2.40329524E+00 -4.27297721E+00 -1.25800972E+00
 -2.40329524E+00 -4.27297721E+00 -1.25800972E+00 -2.40329524E+00 -4.27297721E+00
 -1.25800972E+00 -2.40329524E+00  2.27535652E+00  4.04764329E+00 -1.01965988E+00
  2.27535652E+00  4.04764329E+00 -1.01965988E+00  2.27535652E+00  4.04764329E+00
 -1.01965988E+00  2.27535652E+00  4.04764329E+00 -1.01965988E+00  2.27535652E+00
  4.04764329E+00 -1.01965988E+00 -5.98046397E+00 -1.73764956E+00  6.19327326E-01
 -5.98046397E+00 -1.73764956E+00  6.19327326E-01 -5.98046397E+00 -1.73764956E+00
  6.19327326E-01 -5.98046397E+00 -1.73764956E+00  6.19327326E-01 -5.98046397E+00
 -1.73764956E+00  6.19327326E-01 -2.21060991E+00 -1.46217852E-01  2.93779102E+00
 -2.21060991E+00 -1.46217852E-01  2.93779102E+00 -2.21060991E+00 -1.46217852E-01
  2.93779102E+00 -2.21060991E+00 -1.46217852E-01  2.93779102E+00 -2.21060991E+00
 -1.46217852E-01  2.93779102E+00 -3.35449488E-01  4.21793229E-01 -2.54862183E+00
 -3.35449488E-01  4.21793229E-01 -2.54862183E+00 -3.35449488E-01  4.21793229E-01
 -2.54862183E+00 -3.35449488E-01  4.21793229E-01 -2.54862183E+00 -3.35449488E-01
  4.21793229E-01 -2.54862183E+00  9.53777163E-01  3.73461714E+00  2.05117920E+00
  9.53777163E-01  3.73461714E+00  2.05117920E+00  9.53777163E-01  3.73461714E+00
  2.05117920E+00  9.53777163E-01  3.73461714E+00  2.05117920E+00  9.53777163E-01
  3.73461714E+00  2.05117920E+00 -1.01014144E+00  4.55769737E+00 -5.50277350E-01
 -1.01014144E+00  4.55769737E+00 -5.50277350E-01 -1.01014144E+00  4.55769737E+00
 -5.50277350E-01 -1.01014144E+00  4.55769737E+00 -5.50277350E-01 -1.01014144E+00
  4.55769737E+00 -5.50277350E-01  2.70975402E+00 -1.50722681E+00  3.91235433E-02
  2.70975402E+00 -1.50722681E+00  3.91235433E-02  2.70975402E+00 -1.50722681E+00
  3.91235433E-02  2.70975402E+00 -1.50722681E+00  3.91235433E-02  2.70975402E+00
 -1.50722681E+00  3.91235433E-02  2.70975402E+00 -1.50722681E+00  3.91235433E-02
  2.70975402E+00 -1.50722681E+00  3.91235433E-02  2.70975402E+00 -1.50722681E+00
  3.91235433E-02  2.70975402E+00 -1.50722681E+00  3.91235433E-02  2.70975402E+00
 -1.50722681E+00  3.91235433E-02  2.70975402E+00 -1.50722681E+00  3.91235433E-02
  2.70975402E+00 -1.50722681E+00  3.91235433E-02  2.70975402E+00 -1.50722681E+00
  3.91235433E-02
Constraint Structure                       R   N=          36
  6.19598426E-01  3.41206666E+00  3.41892852E-02 -3.91641599E-03  6.56109947E-01
 -5.30324546E-01 -2.25628632E+00 -2.70901866E-01  8.85958211E-01 -4.27361401E+00
 -1.13011109E+00 -3.48413531E-01 -4.27297721E+00 -1.25800972E+00 -2.40329524E+00
  2.27535652E+00  4.04764329E+00 -1.01965988E+00 -5.98046397E+00 -1.73764956E+00
  6.19327326E-01 -2.21060991E+00 -1.46217852E-01  2.93779102E+00 -3.35449488E-01
  4.21793229E-01 -2.54862183E+00  9.53777163E-01  3.73461714E+00  2.05117920E+00
 -1.01014144E+00  4.55769737E+00 -5.50277350E-01  2.70975402E+00 -1.50722681E+00
  3.91235433E-02
Num ILSW                                   I              100
ILSW                                       I   N=         100
           0           0           0           0           2           0
           0           0           0           0         402          -1
           5           0           0           0           0           0
           0           0           0           0           0           0
           1           0           0           0           0           0
           0           0      100000           0          -1           0
           0           0           0           0           0           0
           0           0           0           1           0           0
           0           0           1           0           0           0
           0           0           4          41           0           0
           0           0           5           0           0           0
           0           0           0           0           0           0
           0           0           0           0           0           0
           0           0           0           0           0           0
           0           0           0           0           0           0
           0           0           0           0           0           0
           0           0           0           0
Num RLSW                                   I               41
RLSW                                       R   N=          41
  8.00000000E-01  7.20000000E-01  1.00000000E+00  8.10000000E-01  2.00000000E-01
  0.00000000E+00  0.00000000E+00  1.00000000E+00  0.00000000E+00  0.00000000E+00
  0.00000000E+00  0.00000000E+00  1.00000000E+00  0.00000000E+00  0.00000000E+00
  0.00000000E+00  0.00000000E+00  1.00000000E+00  0.00000000E+00  0.00000000E+00
  0.00000000E+00  0.00000000E+00  1.00000000E+00  0.00000000E+00  0.00000000E+00
  0.00000000E+00  0.00000000E+00  1.00000000E+00  0.00000000E+00  0.00000000E+00
  0.00000000E+00  0.00000000E+00  0.00000000E+00  0.00000000E+00  0.00000000E+00
  0.00000000E+00  0.00000000E+00  0.00000000E+00  1.00000000E+00  1.00000000E+00
  0.00000000E+00
MxBond                                     I                4
NBond                                      I   N=          12
           4           4           3           3           1           1
           1           1           1           1           1           1
IBond                                      I   N=          48
           2           6          10          11           1           3
           9          12           2           4           8           0
           3           5           7           0           4           0
           0           0           1           0           0           0
           4           0           0           0           3           0
           0           0           2           0           0           0
           1           0           0           0           1           0
           0           0           2           0           0           0
RBond                                      R   N=          48
  1.00000000E+00  1.00000000E+00  1.00000000E+00  1.00000000E+00  1.00000000E+00
  1.00000000E+00  1.00000000E+00  1.00000000E+00  1.00000000E+00  2.00000000E+00
  1.00000000E+00  0.00000000E+00  2.00000000E+00  1.00000000E+00  1.00000000E+00
  0.00000000E+00  1.00000000E+00  0.00000000E+00  0.00000000E+00  0.00000000E+00
  1.00000000E+00  0.00000000E+00  0.00000000E+00  0.00000000E+00  1.00000000E+00
  0.00000000E+00  0.00000000E+00  0.00000000E+00  1.00000000E+00  0.00000000E+00
  0.00000000E+00  0.00000000E+00  1.00000000E+00  0.00000000E+00  0.00000000E+00
  0.00000000E+00  1.00000000E+00  0.00000000E+00  0.00000000E+00  0.00000000E+00
  1.00000000E+00  0.00000000E+00  0.00000000E+00  0.00000000E+00  1.00000000E+00
  0.00000000E+00  0.00000000E+00  0.00000000E+00
Virial Ratio                               R      2.003105014650209E+00
SCF Energy                                 R     -6.168942154455281E+02
Total Energy                               R     -6.168942154455281E+02
RMS Density                                R      9.535165181057610E-12
Nuclear derivative order                   I                0
External E-field                           R   N=          35
  0.00000000E+00  0.00000000E+00  0.00000000E+00  0.00000000E+00  0.00000000E+00
  0.00000000E+00  0.00000000E+00  0.00000000E+00  0.00000000E+00  0.00000000E+00
  0.00000000E+00  0.00000000E+00  0.00000000E+00  0.00000000E+00  0.00000000E+00
  0.00000000E+00  0.00000000E+00  0.00000000E+00  0.00000000E+00  0.00000000E+00
  0.00000000E+00  0.00000000E+00  0.00000000E+00  0.00000000E+00  0.00000000E+00
  0.00000000E+00  0.00000000E+00  0.00000000E+00  0.00000000E+00  0.00000000E+00
  0.00000000E+00  0.00000000E+00  0.00000000E+00  0.00000000E+00  0.00000000E+00
IOpCl                                      I                0
IROHF                                      I                0
Alpha Orbital Energies                     R   N=         167
 -1.01534130E+02 -1.02467850E+01 -1.01942377E+01 -1.01848471E+01 -1.01832856E+01
 -9.44830408E+00 -7.21267029E+00 -7.20321762E+00 -7.20310341E+00 -8.65566719E-01
 -7.88155666E-01 -7.42813769E-01 -6.37550915E-01 -5.78815275E-01 -4.85149585E-01
 -4.73983871E-01 -4.45541756E-01 -4.15298466E-01 -4.03890441E-01 -3.76775163E-01
 -3.66185644E-01 -3.05304113E-01 -2.98069805E-01 -2.80697502E-01 -3.31243060E-02
 -8.23435124E-03  6.18457038E-03  6.98414369E-03  2.05688010E-02  2.84619345E-02
  3.84995193E-02  4.18950541E-02  6.32314816E-02  6.37754118E-02  7.23948529E-02
  8.37496000E-02  8.74245668E-02  9.80264410E-02  1.11075827E-01  1.15102358E-01
  1.17462726E-01  1.22065847E-01  1.28280908E-01  1.29150876E-01  1.34176782E-01
  1.40664737E-01  1.51712912E-01  1.56055969E-01  1.61111361E-01  1.65521637E-01
  1.71472022E-01  1.87684649E-01  1.91929544E-01  2.10882593E-01  2.19346277E-01
  2.25447587E-01  2.42846905E-01  2.60867524E-01  2.67629766E-01  2.92120150E-01
  3.39801409E-01  3.54034100E-01  3.89333536E-01  4.26228582E-01  4.28574465E-01
  4.48829342E-01  4.53740316E-01  4.79827338E-01  4.87371591E-01  4.94678509E-01
  5.24739739E-01  5.29747732E-01  5.70424889E-01  5.88251181E-01  5.94397838E-01
  6.21120024E-01  6.36164796E-01  6.38752511E-01  6.53063223E-01  6.58661092E-01
  6.89273905E-01  7.09345663E-01  7.37423000E-01  7.43651451E-01  7.73236769E-01
  8.22659088E-01  8.35488184E-01  8.64086410E-01  8.90568585E-01  9.11508316E-01
  9.43434592E-01  9.55198985E-01  9.95365626E-01  1.01922054E+00  1.07001920E+00
  1.09095725E+00  1.12582811E+00  1.18561940E+00  1.20049462E+00  1.27939042E+00
  1.39547859E+00  1.42830942E+00  1.44754906E+00  1.47398166E+00  1.50531525E+00
  1.54691308E+00  1.56032133E+00  1.58156141E+00  1.60384478E+00  1.62552134E+00
  1.66371593E+00  1.68968042E+00  1.69710316E+00  1.71774220E+00  1.77631346E+00
  1.78646422E+00  1.87250078E+00  1.88668786E+00  1.94064875E+00  1.98875692E+00
  2.01157356E+00  2.07773014E+00  2.10666590E+00  2.17960472E+00  2.18688566E+00
  2.20363923E+00  2.25842858E+00  2.30051419E+00  2.30368410E+00  2.34909491E+00
  2.36248916E+00  2.45441650E+00  2.45978237E+00  2.49925800E+00  2.52420737E+00
  2.55265840E+00  2.57074716E+00  2.58933656E+00  2.59934714E+00  2.63780528E+00
  2.72462434E+00  2.73983064E+00  2.74648877E+00  2.77384899E+00  2.83798570E+00
  2.86342663E+00  2.93500231E+00  3.07154987E+00  3.09182328E+00  3.17939273E+00
  3.40540309E+00  3.50178986E+00  3.71722580E+00  3.78439002E+00  3.79070244E+00
  3.95267584E+00  4.12376418E+00  4.28443906E+00  9.75164457E+00  2.37142504E+01
  2.37956834E+01  2.39368861E+01  2.42499797E+01  2.59246041E+01  2.59659689E+01
  2.64374119E+01  2.15741051E+02
Alpha MO coefficients                      R   N=       27889
  3.77140734E-07 -9.23345745E-07 -1.52835390E-06 -4.22443861E-06 -1.38682145E-06
  8.96339218E-06  1.55096196E-05  2.10549031E-05  9.25047208E-06 -2.89170005E-05
  5.65686888E-06  5.02722258E-05  1.12922948E-05 -1.55644046E-03 -1.16924713E-04
  4.23685286E-04  2.69283323E-05  9.07750024E-06 -3.22565638E-06 -3.18974595E-06
  1.50807039E-05  5.18457957E-06  1.16816661E-06 -2.22698127E-06  1.21704620E-05
 -1.20133485E-05  3.34609034E-06 -2.29185262E-05 -1.44778775E-05  2.29054052E-05
 -1.12026047E-05  1.88695743E-04  1.61373307E-04 -1.09285550E-04 -7.20995872E-06
  2.94880647E-03 -6.43802976E-04  4.99052644E-04  5.33301516E-04  6.46262050E-06
 -9.55879960E-07  2.75073162E-06 -3.88591037E-06  8.63010805E-06 -7.20011336E-07
  2.09148075E-06  4.92561353E-06 -2.60209217E-06 -4.63946765E-06 -1.02047305E-05
 -2.79939110E-05  8.72832529E-06  2.52046345E-05  5.69779990E-05 -1.16129171E-06
 -1.47861566E-05 -1.23761759E-04 -6.43253578E-04 -8.95478452E-04 -3.43624520E-04
 -2.67232817E-04  5.03453237E-06  6.29037705E-06 -4.65002600E-06  1.26046341E-07
 -1.37208057E-06  3.48257153E-07 -1.02532275E-06 -1.27923633E-06  4.12700633E-07
  1.16472060E-06  1.18669180E-05  5.35070993E-06 -1.95146142E-06 -7.89152971E-07
 -1.15816163E-04 -1.26414546E-04 -4.00745761E-05  7.12211631E-05 -1.68656344E-03
 -4.25391930E-04 -2.30554494E-04 -3.37220196E-06 -5.09727839E-06 -2.00921149E-06
 -4.56463938E-06 -2.70197618E-06 -1.41850854E-06 -3.07536019E-06  3.91799890E-05
  9.44285506E-05  1.53486944E-04  6.66776082E-06  9.58401916E-07  7.22702487E-06
  1.01448309E-05 -6.68531227E-05  8.83604519E-05  2.02114603E-04  7.60268279E-06
  1.12233895E-05 -9.01199028E-06  2.53067407E-06 -2.59428367E-05 -7.90475091E-05
 -2.22003237E-04 -1.84715122E-06 -1.08551193E-07  1.95233333E-06  3.76816840E-06
 -1.50009085E-05  1.07870458E-04  2.21492010E-04 -9.05876556E-06  1.60890519E-06
  9.86728929E-06 -3.05474444E-06 -4.54048816E-05 -1.58941798E-04 -3.06121286E-05
 -6.02828826E-06  1.04741656E-06 -1.17480604E-05  8.87290868E-06 -5.16849949E-05
  2.57125437E-05  6.89351581E-05 -3.47617451E-06  9.18047443E-06  1.28292921E-05
 -6.19485670E-06  3.04418523E-05 -1.32436797E-04 -2.37997435E-04  1.17988237E-06
 -4.40092518E-06 -8.68380202E-07  4.11609772E-01  6.54076418E-01  1.50025146E-02