 Entering Gaussian System, Link 0=g09
 Input=input.dat
 Output=output.dat
 Initial command:
 /cerebro/home/software/apps/g09/l1.exe /scratch/crawdad/Gau-6320.inp -scrdir=/scratch/crawdad/
 Entering Link 1 = /cerebro/home/software/apps/g09/l1.exe PID=      6329.
  
 Copyright (c) 1988,1990,1992,1993,1995,1998,2003,2009, Gaussian, Inc.
                  All Rights Reserved.
  
 This is part of the Gaussian(R) 09 program.  It is based on
 the Gaussian(R) 03 system (copyright 2003, Gaussian, Inc.),
 the Gaussian(R) 98 system (copyright 1998, Gaussian, Inc.),
 the Gaussian(R) 94 system (copyright 1995, Gaussian, Inc.),
 the Gaussian 92(TM) system (copyright 1992, Gaussian, Inc.),
 the Gaussian 90(TM) system (copyright 1990, Gaussian, Inc.),
 the Gaussian 88(TM) system (copyright 1988, Gaussian, Inc.),
 the Gaussian 86(TM) system (copyright 1986, Carnegie Mellon
 University), and the Gaussian 82(TM) system (copyright 1983,
 Carnegie Mellon University). Gaussian is a federally registered
 trademark of Gaussian, Inc.
  
 This software contains proprietary and confidential information,
 including trade secrets, belonging to Gaussian, Inc.
  
 This software is provided under written license and may be
 used, copied, transmitted, or stored only in accord with that
 written license.
  
 The following legend is applicable only to US Government
 contracts under FAR:
  
                    RESTRICTED RIGHTS LEGEND
  
 Use, reproduction and disclosure by the US Government is
 subject to restrictions as set forth in subparagraphs (a)
 and (c) of the Commercial Computer Software - Restricted
 Rights clause in FAR 52.227-19.
  
 Gaussian, Inc.
 340 Quinnipiac St., Bldg. 40, Wallingford CT 06492
  
  
 ---------------------------------------------------------------
 Warning -- This program may not be used in any manner that
 competes with the business of Gaussian, Inc. or will provide
 assistance to any competitor of Gaussian, Inc.  The licensee
 of this program is prohibited from giving any competitor of
 Gaussian, Inc. access to this program.  By using this program,
 the user acknowledges that Gaussian, Inc. is engaged in the
 business of creating and licensing software in the field of
 computational chemistry and represents and warrants to the
 licensee that it is not a competitor of Gaussian, Inc. and that
 it will not use this program in any manner prohibited above.
 ---------------------------------------------------------------
  

 Cite this work as:
 Gaussian 09, Revision A.02,
 M. J. Frisch, G. W. Trucks, H. B. Schlegel, G. E. Scuseria, 
 M. A. Robb, J. R. Cheeseman, G. Scalmani, V. Barone, B. Mennucci, 
 G. A. Petersson, H. Nakatsuji, M. Caricato, X. Li, H. P. Hratchian, 
 A. F. Izmaylov, J. Bloino, G. Zheng, J. L. Sonnenberg, M. Hada, 
 M. Ehara, K. Toyota, R. Fukuda, J. Hasegawa, M. Ishida, T. Nakajima, 
 Y. Honda, O. Kitao, H. Nakai, T. Vreven, J. A. Montgomery, Jr., 
 J. E. Peralta, F. Ogliaro, M. Bearpark, J. J. Heyd, E. Brothers, 
 K. N. Kudin, V. N. Staroverov, R. Kobayashi, J. Normand, 
 K. Raghavachari, A. Rendell, J. C. Burant, S. S. Iyengar, J. Tomasi, 
 M. Cossi, N. Rega, J. M. Millam, M. Klene, J. E. Knox, J. B. Cross, 
 V. Bakken, C. Adamo, J. Jaramillo, R. Gomperts, R. E. Stratmann, 
 O. Yazyev, A. J. Austin, R. Cammi, C. Pomelli, J. W. Ochterski, 
 R. L. Martin, K. Morokuma, V. G. Zakrzewski, G. A. Voth, 
 P. Salvador, J. J. Dannenberg, S. Dapprich, A. D. Daniels, 
 O. Farkas, J. B. Foresman, J. V. Ortiz, J. Cioslowski, 
 and D. J. Fox, Gaussian, Inc., Wallingford CT, 2009.
 
 ******************************************
 Gaussian 09:  EM64L-G09RevA.02 11-Jun-2009
                10-Jul-2013 
 ******************************************
 %chk=vibave
 %mem=1000mb
 %nproc=1
 Will use up to    1 processors via shared memory.
 ----------------------------------------------------------------------
 #P B3LYP/6-311++G** scf(conver=11) int=ultrafine polar=optrot cphf(rdf
 req,conver=11)
 ----------------------------------------------------------------------
 1/38=1,83=21/1;
 2/12=2,17=6,18=5,40=1/2;
 3/5=4,6=6,7=1111,11=2,16=1,25=1,30=1,36=2,74=-5,75=-5/1,2,3;
 4//1;
 5/5=2,6=11,38=5,96=-2,98=1/2;
 8/6=4,10=90,11=11/1;
 10/6=1,7=11,13=10,46=8,60=-2,72=3/2;
 6/7=2,8=2,9=2,10=2,28=1/1;
 99/5=1,9=1/99;
 Leave Link    1 at Wed Jul 10 16:50:10 2013, MaxMem=  131072000 cpu:       0.1
 (Enter /cerebro/home/software/apps/g09/l101.exe)
 -----------------------------
 (R)-3-chloro-1-butene tau=120
 -----------------------------
 Symbolic Z-matrix:
 Charge =  0 Multiplicity = 1
 C                     0.46365   1.7552    0.03918 
 C                     0.00536   0.34981  -0.32811 
 C                    -1.20569  -0.09678   0.42757 
 C                    -2.33241  -0.49789  -0.15581 
 H                    -2.42819  -0.55163  -1.23837 
 H                     1.40419   2.03088  -0.52844 
 H                    -3.20004  -0.78952   0.42855 
 H                    -1.12927  -0.0615    1.50244 
 H                    -0.14933   0.26203  -1.35398 
 H                     0.67819   1.83323   1.12911 
 H                    -0.29176   2.44414  -0.20412 
 Cl                    1.38606  -0.83737   0.02289 
 
 NAtoms=     12 NQM=     12 NQMF=      0 NMic=      0 NMicF=      0 NTot=     12.
                    Isotopes and Nuclear Properties:
 (Nuclear quadrupole moments (NQMom) in fm**2, nuclear magnetic moments (NMagM)
  in nuclear magnetons)

  Atom         1           2           3           4           5           6           7           8           9          10
 IAtWgt=          12          12          12          12           1           1           1           1           1           1
 AtmWgt=  12.0000000  12.0000000  12.0000000  12.0000000   1.0078250   1.0078250   1.0078250   1.0078250   1.0078250   1.0078250
 NucSpn=           0           0           0           0           1           1           1           1           1           1
 AtZEff=   0.0000000   0.0000000   0.0000000   0.0000000   0.0000000   0.0000000   0.0000000   0.0000000   0.0000000   0.0000000
 NQMom=    0.0000000   0.0000000   0.0000000   0.0000000   0.0000000   0.0000000   0.0000000   0.0000000   0.0000000   0.0000000
 NMagM=    0.0000000   0.0000000   0.0000000   0.0000000   2.7928460   2.7928460   2.7928460   2.7928460   2.7928460   2.7928460

  Atom        11          12
 IAtWgt=           1          35
 AtmWgt=   1.0078250  34.9688527
 NucSpn=           1           3
 AtZEff=   0.0000000   0.0000000
 NQMom=    0.0000000  -8.1650000
 NMagM=    2.7928460   0.8218740
 Using perturbation frequencies:    0.071980    0.077357    0.104503    0.128347
 Leave Link  101 at Wed Jul 10 16:50:11 2013, MaxMem=  131072000 cpu:       0.2
 (Enter /cerebro/home/software/apps/g09/l202.exe)
                          Input orientation:                          
 ---------------------------------------------------------------------
 Center     Atomic      Atomic             Coordinates (Angstroms)
 Number     Number       Type             X           Y           Z
 ---------------------------------------------------------------------
      1          6           0        0.463652    1.755198    0.039183
      2          6           0        0.005356    0.349812   -0.328108
      3          6           0       -1.205693   -0.096777    0.427567
      4          6           0       -2.332413   -0.497894   -0.155806
      5          1           0       -2.428186   -0.551628   -1.238373
      6          1           0        1.404187    2.030878   -0.528436
      7          1           0       -3.200045   -0.789515    0.428546
      8          1           0       -1.129266   -0.061500    1.502436
      9          1           0       -0.149326    0.262032   -1.353975
     10          1           0        0.678186    1.833232    1.129113
     11          1           0       -0.291762    2.444144   -0.204123
     12         17           0        1.386063   -0.837370    0.022894
 ---------------------------------------------------------------------
                    Distance matrix (angstroms):
                    1          2          3          4          5
     1  C    0.000000
     2  C    1.523170   0.000000
     3  C    2.523364   1.495703   0.000000
     4  C    3.596168   2.492682   1.330683   0.000000
     5  H    3.913607   2.750146   2.115830   1.088122   0.000000
     6  H    1.132607   2.196097   3.500334   4.527221   4.675514
     7  H    4.477705   3.484995   2.111238   1.085953   1.852289
     8  H    2.824693   2.192587   1.078160   2.094701   3.072370
     9  H    2.132176   1.041170   2.102034   2.603645   2.422521
    10  H    1.113581   2.185573   2.786772   4.018566   4.576253
    11  H    1.050950   2.118933   2.773190   3.580808   3.822124
    12  Cl   2.751820   1.854442   2.725700   3.738214   4.027523
                    6          7          8          9         10
     6  H    0.000000
     7  H    5.483556   0.000000
     8  H    3.862755   2.443639   0.000000
     9  H    2.494742   3.686464   3.037111   0.000000
    10  H    1.820334   4.733948   2.645044   3.052732   0.000000
    11  H    1.775447   4.394875   3.145156   2.470639   1.758275
    12  Cl   2.920812   4.604262   3.019586   2.337065   2.976059
                   11         12
    11  H    0.000000
    12  Cl   3.692556   0.000000
 Stoichiometry    C4H7Cl
 Framework group  C1[X(C4H7Cl)]
 Deg. of freedom    30
 Full point group                 C1      NOp   1
 Largest Abelian subgroup         C1      NOp   1
 Largest concise Abelian subgroup C1      NOp   1
                         Standard orientation:                         
 ---------------------------------------------------------------------
 Center     Atomic      Atomic             Coordinates (Angstroms)
 Number     Number       Type             X           Y           Z
 ---------------------------------------------------------------------
      1          6           0        0.466957    1.754261    0.038737
      2          6           0        0.005477    0.349918   -0.328554
      3          6           0       -1.206581   -0.093926    0.427122
      4          6           0       -2.334208   -0.492489   -0.156252
      5          1           0       -2.430102   -0.546005   -1.238819
      6          1           0        1.408115    2.027809   -0.528882
      7          1           0       -3.202498   -0.782142    0.428100
      8          1           0       -1.130074   -0.058822    1.501991
      9          1           0       -0.149404    0.262488   -1.354421
     10          1           0        0.681667    1.831809    1.128668
     11          1           0       -0.286894    2.444917   -0.204569
     12         17           0        1.383490   -0.840391    0.022448
 ---------------------------------------------------------------------
 Rotational constants (GHZ):      5.5624147      2.7460361      2.0026670
 Leave Link  202 at Wed Jul 10 16:50:11 2013, MaxMem=  131072000 cpu:       0.0
 (Enter /cerebro/home/software/apps/g09/l301.exe)
 Standard basis: 6-311++G(d,p) (5D, 7F)
 Ernie: Thresh=  0.10000D-02 Tol=  0.10000D-05 Strict=F.
 There are   167 symmetry adapted basis functions of A   symmetry.
 Integral buffers will be    131072 words long.
 Raffenetti 2 integral format.
 Two-electron integral symmetry is turned on.
   167 basis functions,   260 primitive gaussians,   172 cartesian basis functions
    24 alpha electrons       24 beta electrons
       nuclear repulsion energy       211.8441520494 Hartrees.
 IExCor=  402 DFT=T Ex+Corr=B3LYP ExCW=0 ScaHFX=  0.200000
 ScaDFX=  0.800000  0.720000  1.000000  0.810000 ScalE2=  1.000000  1.000000
 IRadAn=      5 IRanWt=     -1 IRanGd=            0 ICorTp=0
 NAtoms=   12 NActive=   12 NUniq=   12 SFac= 7.50D-01 NAtFMM=   80 NAOKFM=F Big=F
 Leave Link  301 at Wed Jul 10 16:50:11 2013, MaxMem=  131072000 cpu:       0.2
 (Enter /cerebro/home/software/apps/g09/l302.exe)
 NPDir=0 NMtPBC=     1 NCelOv=     1 NCel=       1 NClECP=     1 NCelD=      1
         NCelK=      1 NCelE2=     1 NClLst=     1 CellRange=     0.0.
 One-electron integrals computed using PRISM.
 NBasis=   167 RedAO= T  NBF=   167
 NBsUse=   167 1.00D-06 NBFU=   167
 Precomputing XC quadrature grid using
 IXCGrd= 2 IRadAn=           5 IRanWt=          -1 IRanGd=           0 AccXCQ= 1.00D-10.
 NRdTot=    1019 NPtTot=      274288 NUsed=      281590 NTot=      281622
 NSgBfM=   172   172   172   172   172 NAtAll=    12    12.
 Leave Link  302 at Wed Jul 10 16:50:12 2013, MaxMem=  131072000 cpu:       0.7
 (Enter /cerebro/home/software/apps/g09/l303.exe)
 DipDrv:  MaxL=2.
 Leave Link  303 at Wed Jul 10 16:50:12 2013, MaxMem=  131072000 cpu:       0.1
 (Enter /cerebro/home/software/apps/g09/l401.exe)
 Harris functional with IExCor=  402 diagonalized for initial guess.
 ExpMin= 3.60D-02 ExpMax= 1.06D+05 ExpMxC= 3.62D+03 IAcc=3 IRadAn=         5 AccDes= 0.00D+00
 HarFok:  IExCor=  402 AccDes= 0.00D+00 IRadAn=         5 IDoV= 1
 ScaDFX=  1.000000  1.000000  1.000000  1.000000
 FoFCou: FMM=F IPFlag=           0 FMFlag=      100000 FMFlg1=           0
         NFxFlg=           0 DoJE=T BraDBF=F KetDBF=T FulRan=T
         Omega=  0.000000  0.000000  1.000000  0.000000  0.000000 ICntrl=     500 IOpCl=  0
         NMat0=    1 NMatS0=    1 NMatT0=    0 NMatD0=    1 NMtDS0=    0 NMtDT0=    0
         I1Cent=           4 NGrid=           0.
 Petite list used in FoFCou.
 Harris En= -616.912060254741    
 Initial guess orbital symmetries:
       Occupied  (A) (A) (A) (A) (A) (A) (A) (A) (A) (A) (A) (A)
                 (A) (A) (A) (A) (A) (A) (A) (A) (A) (A) (A) (A)
       Virtual   (A) (A) (A) (A) (A) (A) (A) (A) (A) (A) (A) (A)
                 (A) (A) (A) (A) (A) (A) (A) (A) (A) (A) (A) (A)
                 (A) (A) (A) (A) (A) (A) (A) (A) (A) (A) (A) (A)
                 (A) (A) (A) (A) (A) (A) (A) (A) (A) (A) (A) (A)
                 (A) (A) (A) (A) (A) (A) (A) (A) (A) (A) (A) (A)
                 (A) (A) (A) (A) (A) (A) (A) (A) (A) (A) (A) (A)
                 (A) (A) (A) (A) (A) (A) (A) (A) (A) (A) (A) (A)
                 (A) (A) (A) (A) (A) (A) (A) (A) (A) (A) (A) (A)
                 (A) (A) (A) (A) (A) (A) (A) (A) (A) (A) (A) (A)
                 (A) (A) (A) (A) (A) (A) (A) (A) (A) (A) (A) (A)
                 (A) (A) (A) (A) (A) (A) (A) (A) (A) (A) (A) (A)
                 (A) (A) (A) (A) (A) (A) (A) (A) (A) (A) (A)
 The electronic state of the initial guess is 1-A.
 Leave Link  401 at Wed Jul 10 16:50:19 2013, MaxMem=  131072000 cpu:       7.4
 (Enter /cerebro/home/software/apps/g09/l502.exe)
 Closed shell SCF:
 Requested convergence on RMS density matrix=1.00D-11 within 128 cycles.
 Requested convergence on MAX density matrix=1.00D-09.
 Requested convergence on             energy=1.00D-09.
 No special actions if energy rises.
 Using DIIS extrapolation, IDIIS=  1040.
 Integral symmetry usage will be decided dynamically.
       281469 words used for storage of precomputed grid.
 Keep R1 ints in memory in canonical form, NReq=113664361.
 IEnd=      390694 IEndB=      390694 NGot=   131072000 MDV=    20042794
 LenX=    20042794 LenY=    20012769
 Symmetry not used in FoFDir.
 MinBra= 0 MaxBra= 2 Meth= 1.
 IRaf=       0 NMat=   1 IRICut=       1 DoRegI=T DoRafI=F ISym2E= 0 JSym2E=0.

 Cycle   1  Pass 1  IDiag  1:
 E= -616.718075883826    
 DIIS: error= 2.33D-02 at cycle   1 NSaved=   1.
 NSaved= 1 IEnMin= 1 EnMin= -616.718075883826     IErMin= 1 ErrMin= 2.33D-02
 ErrMax= 2.33D-02 EMaxC= 1.00D-01 BMatC= 2.06D-01 BMatP= 2.06D-01
 IDIUse=3 WtCom= 7.67D-01 WtEn= 2.33D-01
 Coeff-Com:  0.100D+01
 Coeff-En:   0.100D+01
 Coeff:      0.100D+01
 Gap=     0.390 Goal=   None    Shift=    0.000
 GapD=    0.390 DampG=1.000 DampE=0.500 DampFc=0.5000 IDamp=-1.
 Damping current iteration by 5.00D-01
 RMSDP=6.67D-03 MaxDP=1.54D-01              OVMax= 2.22D-01

 Cycle   2  Pass 1  IDiag  1:
 E= -616.789468500262     Delta-E=       -0.071392616436 Rises=F Damp=T
 DIIS: error= 6.04D-03 at cycle   2 NSaved=   2.
 NSaved= 2 IEnMin= 2 EnMin= -616.789468500262     IErMin= 2 ErrMin= 6.04D-03
 ErrMax= 6.04D-03 EMaxC= 1.00D-01 BMatC= 1.31D-02 BMatP= 2.06D-01
 IDIUse=3 WtCom= 9.40D-01 WtEn= 6.04D-02
 Coeff-Com:  0.418D-01 0.958D+00
 Coeff-En:   0.186D+00 0.814D+00
 Coeff:      0.505D-01 0.949D+00
 Gap=     0.286 Goal=   None    Shift=    0.000
 RMSDP=4.51D-03 MaxDP=2.13D-01 DE=-7.14D-02 OVMax= 1.26D-01

 Cycle   3  Pass 1  IDiag  1:
 E= -616.885725780976     Delta-E=       -0.096257280714 Rises=F Damp=F
 DIIS: error= 6.25D-03 at cycle   3 NSaved=   3.
 NSaved= 3 IEnMin= 3 EnMin= -616.885725780976     IErMin= 2 ErrMin= 6.04D-03
 ErrMax= 6.25D-03 EMaxC= 1.00D-01 BMatC= 5.33D-03 BMatP= 1.31D-02
 IDIUse=3 WtCom= 9.37D-01 WtEn= 6.25D-02
 Coeff-Com: -0.630D-01 0.347D+00 0.716D+00
 Coeff-En:   0.000D+00 0.000D+00 0.100D+01
 Coeff:     -0.591D-01 0.326D+00 0.733D+00
 Gap=     0.258 Goal=   None    Shift=    0.000
 RMSDP=1.88D-03 MaxDP=5.79D-02 DE=-9.63D-02 OVMax= 2.86D-02

 Cycle   4  Pass 1  IDiag  1:
 E= -616.889794549154     Delta-E=       -0.004068768178 Rises=F Damp=F
 DIIS: error= 3.32D-03 at cycle   4 NSaved=   4.
 NSaved= 4 IEnMin= 4 EnMin= -616.889794549154     IErMin= 4 ErrMin= 3.32D-03
 ErrMax= 3.32D-03 EMaxC= 1.00D-01 BMatC= 1.98D-03 BMatP= 5.33D-03
 IDIUse=3 WtCom= 9.67D-01 WtEn= 3.32D-02
 Coeff-Com: -0.378D-01 0.127D+00 0.445D+00 0.466D+00
 Coeff-En:   0.000D+00 0.000D+00 0.241D+00 0.759D+00
 Coeff:     -0.365D-01 0.122D+00 0.438D+00 0.476D+00
 Gap=     0.247 Goal=   None    Shift=    0.000
 RMSDP=5.67D-04 MaxDP=1.77D-02 DE=-4.07D-03 OVMax= 1.43D-02

 Cycle   5  Pass 1  IDiag  1:
 E= -616.891657054974     Delta-E=       -0.001862505820 Rises=F Damp=F
 DIIS: error= 6.05D-04 at cycle   5 NSaved=   5.
 NSaved= 5 IEnMin= 5 EnMin= -616.891657054974     IErMin= 5 ErrMin= 6.05D-04
 ErrMax= 6.05D-04 EMaxC= 1.00D-01 BMatC= 7.96D-05 BMatP= 1.98D-03
 IDIUse=3 WtCom= 9.94D-01 WtEn= 6.05D-03
 Coeff-Com: -0.139D-01 0.407D-01 0.181D+00 0.240D+00 0.552D+00
 Coeff-En:   0.000D+00 0.000D+00 0.000D+00 0.000D+00 0.100D+01
 Coeff:     -0.138D-01 0.404D-01 0.180D+00 0.238D+00 0.555D+00
 Gap=     0.247 Goal=   None    Shift=    0.000
 RMSDP=1.01D-04 MaxDP=3.45D-03 DE=-1.86D-03 OVMax= 6.52D-03

 Cycle   6  Pass 1  IDiag  1:
 E= -616.891726761174     Delta-E=       -0.000069706200 Rises=F Damp=F
 DIIS: error= 2.79D-04 at cycle   6 NSaved=   6.
 NSaved= 6 IEnMin= 6 EnMin= -616.891726761174     IErMin= 6 ErrMin= 2.79D-04
 ErrMax= 2.79D-04 EMaxC= 1.00D-01 BMatC= 1.51D-05 BMatP= 7.96D-05
 IDIUse=3 WtCom= 9.97D-01 WtEn= 2.79D-03
 Coeff-Com: -0.352D-02 0.676D-02 0.519D-01 0.778D-01 0.330D+00 0.537D+00
 Coeff-En:   0.000D+00 0.000D+00 0.000D+00 0.000D+00 0.152D+00 0.848D+00
 Coeff:     -0.351D-02 0.674D-02 0.518D-01 0.776D-01 0.330D+00 0.538D+00
 Gap=     0.247 Goal=   None    Shift=    0.000
 RMSDP=4.37D-05 MaxDP=1.43D-03 DE=-6.97D-05 OVMax= 2.13D-03

 Cycle   7  Pass 1  IDiag  1:
 E= -616.891741441870     Delta-E=       -0.000014680696 Rises=F Damp=F
 DIIS: error= 3.48D-05 at cycle   7 NSaved=   7.
 NSaved= 7 IEnMin= 7 EnMin= -616.891741441870     IErMin= 7 ErrMin= 3.48D-05
 ErrMax= 3.48D-05 EMaxC= 1.00D-01 BMatC= 4.49D-07 BMatP= 1.51D-05
 IDIUse=1 WtCom= 1.00D+00 WtEn= 0.00D+00
 Coeff-Com: -0.647D-03 0.286D-03 0.118D-01 0.184D-01 0.106D+00 0.236D+00
 Coeff-Com:  0.629D+00
 Coeff:     -0.647D-03 0.286D-03 0.118D-01 0.184D-01 0.106D+00 0.236D+00
 Coeff:      0.629D+00
 Gap=     0.247 Goal=   None    Shift=    0.000
 RMSDP=9.82D-06 MaxDP=3.49D-04 DE=-1.47D-05 OVMax= 1.70D-04

 Cycle   8  Pass 1  IDiag  1:
 E= -616.891741844953     Delta-E=       -0.000000403084 Rises=F Damp=F
 DIIS: error= 6.85D-06 at cycle   8 NSaved=   8.
 NSaved= 8 IEnMin= 8 EnMin= -616.891741844953     IErMin= 8 ErrMin= 6.85D-06
 ErrMax= 6.85D-06 EMaxC= 1.00D-01 BMatC= 1.81D-08 BMatP= 4.49D-07
 IDIUse=1 WtCom= 1.00D+00 WtEn= 0.00D+00
 Coeff-Com:  0.551D-04-0.363D-03 0.611D-03 0.123D-02 0.166D-01 0.544D-01
 Coeff-Com:  0.229D+00 0.699D+00
 Coeff:      0.551D-04-0.363D-03 0.611D-03 0.123D-02 0.166D-01 0.544D-01
 Coeff:      0.229D+00 0.699D+00
 Gap=     0.247 Goal=   None    Shift=    0.000
 RMSDP=1.91D-06 MaxDP=4.43D-05 DE=-4.03D-07 OVMax= 4.58D-05

 Cycle   9  Pass 1  IDiag  1:
 E= -616.891741861844     Delta-E=       -0.000000016891 Rises=F Damp=F
 DIIS: error= 2.33D-06 at cycle   9 NSaved=   9.
 NSaved= 9 IEnMin= 9 EnMin= -616.891741861844     IErMin= 9 ErrMin= 2.33D-06
 ErrMax= 2.33D-06 EMaxC= 1.00D-01 BMatC= 1.19D-09 BMatP= 1.81D-08
 IDIUse=1 WtCom= 1.00D+00 WtEn= 0.00D+00
 Coeff-Com:  0.421D-04-0.993D-04-0.477D-03-0.661D-03-0.223D-02-0.861D-03
 Coeff-Com:  0.194D-01 0.242D+00 0.743D+00
 Coeff:      0.421D-04-0.993D-04-0.477D-03-0.661D-03-0.223D-02-0.861D-03
 Coeff:      0.194D-01 0.242D+00 0.743D+00
 Gap=     0.247 Goal=   None    Shift=    0.000
 RMSDP=8.86D-07 MaxDP=3.16D-05 DE=-1.69D-08 OVMax= 8.87D-06

 Cycle  10  Pass 1  IDiag  1:
 E= -616.891741863024     Delta-E=       -0.000000001180 Rises=F Damp=F
 DIIS: error= 3.24D-07 at cycle  10 NSaved=  10.
 NSaved=10 IEnMin=10 EnMin= -616.891741863024     IErMin=10 ErrMin= 3.24D-07
 ErrMax= 3.24D-07 EMaxC= 1.00D-01 BMatC= 3.11D-11 BMatP= 1.19D-09
 IDIUse=1 WtCom= 1.00D+00 WtEn= 0.00D+00
 Coeff-Com:  0.971D-05-0.166D-04-0.161D-03-0.226D-03-0.108D-02-0.147D-02
 Coeff-Com:  0.589D-03 0.648D-01 0.244D+00 0.693D+00
 Coeff:      0.971D-05-0.166D-04-0.161D-03-0.226D-03-0.108D-02-0.147D-02
 Coeff:      0.589D-03 0.648D-01 0.244D+00 0.693D+00
 Gap=     0.247 Goal=   None    Shift=    0.000
 RMSDP=1.31D-07 MaxDP=5.54D-06 DE=-1.18D-09 OVMax= 1.70D-06

 Cycle  11  Pass 1  IDiag  1:
 E= -616.891741863050     Delta-E=       -0.000000000025 Rises=F Damp=F
 DIIS: error= 1.31D-07 at cycle  11 NSaved=  11.
 NSaved=11 IEnMin=11 EnMin= -616.891741863050     IErMin=11 ErrMin= 1.31D-07
 ErrMax= 1.31D-07 EMaxC= 1.00D-01 BMatC= 5.58D-12 BMatP= 3.11D-11
 IDIUse=1 WtCom= 1.00D+00 WtEn= 0.00D+00
 Coeff-Com:  0.182D-05-0.181D-05-0.483D-04-0.683D-04-0.373D-03-0.591D-03
 Coeff-Com: -0.101D-02 0.138D-01 0.637D-01 0.339D+00 0.585D+00
 Coeff:      0.182D-05-0.181D-05-0.483D-04-0.683D-04-0.373D-03-0.591D-03
 Coeff:     -0.101D-02 0.138D-01 0.637D-01 0.339D+00 0.585D+00
 Gap=     0.247 Goal=   None    Shift=    0.000
 RMSDP=3.33D-08 MaxDP=1.08D-06 DE=-2.54D-11 OVMax= 5.15D-07

 Cycle  12  Pass 1  IDiag  1:
 E= -616.891741863056     Delta-E=       -0.000000000006 Rises=F Damp=F
 DIIS: error= 2.39D-08 at cycle  12 NSaved=  12.
 NSaved=12 IEnMin=12 EnMin= -616.891741863056     IErMin=12 ErrMin= 2.39D-08
 ErrMax= 2.39D-08 EMaxC= 1.00D-01 BMatC= 1.36D-13 BMatP= 5.58D-12
 IDIUse=1 WtCom= 1.00D+00 WtEn= 0.00D+00
 Coeff-Com: -0.240D-06 0.723D-06-0.178D-05-0.437D-05-0.320D-04-0.332D-04
 Coeff-Com: -0.324D-03-0.116D-02 0.177D-03 0.422D-01 0.154D+00 0.805D+00
 Coeff:     -0.240D-06 0.723D-06-0.178D-05-0.437D-05-0.320D-04-0.332D-04
 Coeff:     -0.324D-03-0.116D-02 0.177D-03 0.422D-01 0.154D+00 0.805D+00
 Gap=     0.247 Goal=   None    Shift=    0.000
 RMSDP=1.19D-08 MaxDP=5.92D-07 DE=-6.03D-12 OVMax= 1.23D-07

 Cycle  13  Pass 1  IDiag  1:
 E= -616.891741863059     Delta-E=       -0.000000000003 Rises=F Damp=F
 DIIS: error= 4.75D-09 at cycle  13 NSaved=  13.
 NSaved=13 IEnMin=13 EnMin= -616.891741863059     IErMin=13 ErrMin= 4.75D-09
 ErrMax= 4.75D-09 EMaxC= 1.00D-01 BMatC= 5.22D-15 BMatP= 1.36D-13
 IDIUse=1 WtCom= 1.00D+00 WtEn= 0.00D+00
 Coeff-Com: -0.136D-06 0.301D-06 0.111D-05 0.813D-06-0.257D-06 0.663D-05
 Coeff-Com: -0.871D-04-0.777D-03-0.184D-02 0.230D-02 0.273D-01 0.241D+00
 Coeff-Com:  0.732D+00
 Coeff:     -0.136D-06 0.301D-06 0.111D-05 0.813D-06-0.257D-06 0.663D-05
 Coeff:     -0.871D-04-0.777D-03-0.184D-02 0.230D-02 0.273D-01 0.241D+00
 Coeff:      0.732D+00
 Gap=     0.247 Goal=   None    Shift=    0.000
 RMSDP=2.91D-09 MaxDP=1.05D-07 DE=-3.18D-12 OVMax= 1.89D-08

 Cycle  14  Pass 1  IDiag  1:
 E= -616.891741863055     Delta-E=        0.000000000004 Rises=F Damp=F
 DIIS: error= 8.57D-10 at cycle  14 NSaved=  14.
 NSaved=14 IEnMin=13 EnMin= -616.891741863059     IErMin=14 ErrMin= 8.57D-10
 ErrMax= 8.57D-10 EMaxC= 1.00D-01 BMatC= 2.07D-16 BMatP= 5.22D-15
 IDIUse=1 WtCom= 1.00D+00 WtEn= 0.00D+00
 Coeff-Com: -0.103D-07 0.214D-07 0.320D-06 0.378D-06 0.105D-05 0.274D-05
 Coeff-Com: -0.507D-05-0.103D-03-0.441D-03-0.193D-02-0.252D-02 0.123D-01
 Coeff-Com:  0.181D+00 0.812D+00
 Coeff:     -0.103D-07 0.214D-07 0.320D-06 0.378D-06 0.105D-05 0.274D-05
 Coeff:     -0.507D-05-0.103D-03-0.441D-03-0.193D-02-0.252D-02 0.123D-01
 Coeff:      0.181D+00 0.812D+00
 Gap=     0.247 Goal=   None    Shift=    0.000
 RMSDP=6.75D-10 MaxDP=2.40D-08 DE= 4.43D-12 OVMax= 4.37D-09

 Cycle  15  Pass 1  IDiag  1:
 E= -616.891741863055     Delta-E=        0.000000000000 Rises=F Damp=F
 DIIS: error= 1.86D-10 at cycle  15 NSaved=  15.
 NSaved=15 IEnMin=13 EnMin= -616.891741863059     IErMin=15 ErrMin= 1.86D-10
 ErrMax= 1.86D-10 EMaxC= 1.00D-01 BMatC= 3.74D-18 BMatP= 2.07D-16
 IDIUse=1 WtCom= 1.00D+00 WtEn= 0.00D+00
 Coeff-Com:  0.530D-09-0.107D-08 0.402D-07 0.728D-07 0.199D-06 0.386D-06
 Coeff-Com:  0.808D-06-0.151D-05-0.420D-04-0.385D-03-0.116D-02-0.305D-02
 Coeff-Com:  0.153D-01 0.143D+00 0.847D+00
 Coeff:      0.530D-09-0.107D-08 0.402D-07 0.728D-07 0.199D-06 0.386D-06
 Coeff:      0.808D-06-0.151D-05-0.420D-04-0.385D-03-0.116D-02-0.305D-02
 Coeff:      0.153D-01 0.143D+00 0.847D+00
 Gap=     0.247 Goal=   None    Shift=    0.000
 RMSDP=9.02D-11 MaxDP=3.30D-09 DE= 0.00D+00 OVMax= 8.16D-10

 Cycle  16  Pass 1  IDiag  1:
 E= -616.891741863058     Delta-E=       -0.000000000004 Rises=F Damp=F
 DIIS: error= 4.70D-11 at cycle  16 NSaved=  16.
 NSaved=16 IEnMin=13 EnMin= -616.891741863059     IErMin=16 ErrMin= 4.70D-11
 ErrMax= 4.70D-11 EMaxC= 1.00D-01 BMatC= 2.04D-19 BMatP= 3.74D-18
 IDIUse=1 WtCom= 1.00D+00 WtEn= 0.00D+00
 Large coefficients: NSaved= 16 BigCof=    0.00 CofMax=   10.00 Det=-2.19D-18
 Inversion failed.  Reducing to 15 matrices.
 Coeff-Com: -0.169D-09 0.397D-08 0.127D-07 0.387D-07 0.773D-07 0.373D-06
 Coeff-Com:  0.170D-05 0.128D-05-0.290D-04-0.191D-03-0.938D-03-0.227D-02
 Coeff-Com:  0.358D-02 0.194D+00 0.805D+00
 Coeff:     -0.169D-09 0.397D-08 0.127D-07 0.387D-07 0.773D-07 0.373D-06
 Coeff:      0.170D-05 0.128D-05-0.290D-04-0.191D-03-0.938D-03-0.227D-02
 Coeff:      0.358D-02 0.194D+00 0.805D+00
 Gap=     0.247 Goal=   None    Shift=    0.000
 RMSDP=3.20D-11 MaxDP=1.76D-09 DE=-3.52D-12 OVMax= 1.75D-10

 Cycle  17  Pass 1  IDiag  1:
 E= -616.891741863057     Delta-E=        0.000000000001 Rises=F Damp=F
 DIIS: error= 8.11D-12 at cycle  17 NSaved=  16.
 NSaved=16 IEnMin=12 EnMin= -616.891741863059     IErMin=16 ErrMin= 8.11D-12
 ErrMax= 8.11D-12 EMaxC= 1.00D-01 BMatC= 8.80D-21 BMatP= 2.04D-19
 IDIUse=1 WtCom= 1.00D+00 WtEn= 0.00D+00
 Large coefficients: NSaved= 16 BigCof=    0.00 CofMax=   10.00 Det=-1.08D-19
 Inversion failed.  Reducing to 15 matrices.
 Coeff-Com: -0.110D-08-0.604D-09-0.130D-08 0.285D-08 0.521D-07 0.453D-06
 Coeff-Com:  0.233D-05 0.105D-04 0.199D-05-0.996D-04-0.125D-02-0.578D-02
 Coeff-Com:  0.145D-01 0.211D+00 0.781D+00
 Coeff:     -0.110D-08-0.604D-09-0.130D-08 0.285D-08 0.521D-07 0.453D-06
 Coeff:      0.233D-05 0.105D-04 0.199D-05-0.996D-04-0.125D-02-0.578D-02
 Coeff:      0.145D-01 0.211D+00 0.781D+00
 Gap=     0.247 Goal=   None    Shift=    0.000
 RMSDP=1.66D-11 MaxDP=9.48D-10 DE= 1.02D-12 OVMax= 3.23D-11

 Cycle  18  Pass 1  IDiag  1:
 E= -616.891741863059     Delta-E=       -0.000000000002 Rises=F Damp=F
 DIIS: error= 2.72D-12 at cycle  18 NSaved=  16.
 NSaved=16 IEnMin=16 EnMin= -616.891741863059     IErMin=16 ErrMin= 2.72D-12
 ErrMax= 2.72D-12 EMaxC= 1.00D-01 BMatC= 3.85D-22 BMatP= 8.80D-21
 IDIUse=1 WtCom= 1.00D+00 WtEn= 0.00D+00
 Large coefficients: NSaved= 16 BigCof=    0.00 CofMax=   10.00 Det=-3.62D-21
 Inversion failed.  Reducing to 15 matrices.
 Coeff-Com:  0.332D-10 0.850D-09 0.135D-08 0.951D-08 0.328D-07 0.195D-06
 Coeff-Com:  0.725D-06-0.403D-06-0.142D-04-0.103D-03-0.699D-03-0.424D-03
 Coeff-Com:  0.196D-01 0.145D+00 0.837D+00
 Coeff:      0.332D-10 0.850D-09 0.135D-08 0.951D-08 0.328D-07 0.195D-06
 Coeff:      0.725D-06-0.403D-06-0.142D-04-0.103D-03-0.699D-03-0.424D-03
 Coeff:      0.196D-01 0.145D+00 0.837D+00
 Gap=     0.247 Goal=   None    Shift=    0.000
 RMSDP=1.25D-11 MaxDP=4.33D-10 DE=-2.05D-12 OVMax= 7.31D-12

 Cycle  19  Pass 1  IDiag  1:
 E= -616.891741863058     Delta-E=        0.000000000002 Rises=F Damp=F
 DIIS: error= 1.67D-12 at cycle  19 NSaved=  16.
 NSaved=16 IEnMin=15 EnMin= -616.891741863059     IErMin=16 ErrMin= 1.67D-12
 ErrMax= 1.67D-12 EMaxC= 1.00D-01 BMatC= 1.59D-22 BMatP= 3.85D-22
 IDIUse=1 WtCom= 1.00D+00 WtEn= 0.00D+00
 Large coefficients: NSaved= 16 BigCof=    0.00 CofMax=   10.00 Det=-6.73D-22
 Inversion failed.  Reducing to 15 matrices.
 Coeff-Com:  0.215D-09-0.203D-09 0.283D-09 0.178D-08 0.557D-07 0.463D-06
 Coeff-Com:  0.827D-06-0.169D-05-0.223D-04-0.237D-03-0.964D-03 0.939D-03
 Coeff-Com:  0.317D-01 0.370D+00 0.598D+00
 Coeff:      0.215D-09-0.203D-09 0.283D-09 0.178D-08 0.557D-07 0.463D-06
 Coeff:      0.827D-06-0.169D-05-0.223D-04-0.237D-03-0.964D-03 0.939D-03
 Coeff:      0.317D-01 0.370D+00 0.598D+00
 Gap=     0.247 Goal=   None    Shift=    0.000
 RMSDP=6.76D-12 MaxDP=1.97D-10 DE= 1.59D-12 OVMax= 2.84D-12

 SCF Done:  E(RB3LYP) =  -616.891741863     A.U. after   19 cycles
             Convg  =    0.6756D-11             -V/T =  2.0030
 KE= 6.150686258017D+02 PE=-1.880454987352D+03 EE= 4.366504676382D+02
 Leave Link  502 at Wed Jul 10 16:54:44 2013, MaxMem=  131072000 cpu:     264.2
 (Enter /cerebro/home/software/apps/g09/l801.exe)
 Range of M.O.s used for correlation:     1   167
 NBasis=   167 NAE=    24 NBE=    24 NFC=     0 NFV=     0
 NROrb=    167 NOA=    24 NOB=    24 NVA=   143 NVB=   143

 **** Warning!!: The largest alpha MO coefficient is  0.63108952D+02

 Leave Link  801 at Wed Jul 10 16:54:44 2013, MaxMem=  131072000 cpu:       0.0
 (Enter /cerebro/home/software/apps/g09/l1002.exe)
 Minotr:  Closed shell wavefunction.
          Direct CPHF calculation.
          Differentiating once with respect to magnetic field using GIAOs.
          Electric field/nuclear overlap derivatives assumed to be zero.
          Requested convergence is 1.0D-11 RMS, and 1.0D-10 maximum.
          NewPWx=F KeepS1=T KeepF1=T KeepIn=T MapXYZ=F SortEE=F KeepMc=T.
          MDV=     131071900 using IRadAn=       4.
 Generate precomputed XC quadrature information.
          Solving linear equations separately, MaxMat=       0.
          Doing perturbations at frequencies    0.071980    0.077357    0.104503    0.128347
 FoFCou: FMM=F IPFlag=           0 FMFlag=           0 FMFlg1=           0
         NFxFlg=           0 DoJE=F BraDBF=F KetDBF=T FulRan=T
         Omega=  0.000000  0.000000  1.000000  0.000000  0.000000 ICntrl=    6100 IOpCl=  0
         NMat0=    1 NMatS0=    1 NMatT0=    0 NMatD0=    1 NMtDS0=    0 NMtDT0=    0
         I1Cent=           7 NGrid=          12.
 Symmetry not used in FoFCou.
 Integrals replicated using symmetry in FoFDir.
 MinBra= 0 MaxBra= 2 Meth= 1.
 IRaf=       0 NMat=  24 IRICut=      30 DoRegI=T DoRafI=T ISym2E= 2 JSym2E=2.
 CalDSu exits because no D1Ps are significant.
          There are    12 degrees of freedom in the 1st order CPHF.  IDoFFX=0.
 LinEq1:  Iter=  0 NonCon=    12 RMS=5.68D-02 Max=1.54D+00
 AX will form    12 AO Fock derivatives at one time.
 LinEq1:  Iter=  1 NonCon=    12 RMS=1.62D-02 Max=7.77D-01
 LinEq1:  Iter=  2 NonCon=    12 RMS=1.25D-02 Max=6.86D-01
 LinEq1:  Iter=  3 NonCon=    12 RMS=6.44D-03 Max=1.69D-01
 LinEq1:  Iter=  4 NonCon=    12 RMS=4.20D-03 Max=7.35D-02
 LinEq1:  Iter=  5 NonCon=    12 RMS=1.69D-03 Max=5.09D-02
 LinEq1:  Iter=  6 NonCon=    12 RMS=8.65D-04 Max=1.50D-02
 LinEq1:  Iter=  7 NonCon=    12 RMS=3.21D-04 Max=6.17D-03
 LinEq1:  Iter=  8 NonCon=    12 RMS=1.33D-04 Max=2.66D-03
 LinEq1:  Iter=  9 NonCon=    12 RMS=5.19D-05 Max=8.43D-04
 LinEq1:  Iter= 10 NonCon=    12 RMS=2.01D-05 Max=2.95D-04
 LinEq1:  Iter= 11 NonCon=    12 RMS=7.28D-06 Max=1.53D-04
 LinEq1:  Iter= 12 NonCon=    12 RMS=3.40D-06 Max=4.44D-05
 LinEq1:  Iter= 13 NonCon=    12 RMS=1.31D-06 Max=2.32D-05
 LinEq1:  Iter= 14 NonCon=    12 RMS=4.09D-07 Max=7.37D-06
 LinEq1:  Iter= 15 NonCon=    12 RMS=1.10D-07 Max=1.55D-06
 LinEq1:  Iter= 16 NonCon=    12 RMS=3.60D-08 Max=7.10D-07
 LinEq1:  Iter= 17 NonCon=    12 RMS=8.78D-09 Max=1.37D-07
 LinEq1:  Iter= 18 NonCon=    12 RMS=2.19D-09 Max=5.44D-08
 LinEq1:  Iter= 19 NonCon=    12 RMS=6.46D-10 Max=1.89D-08
 LinEq1:  Iter= 20 NonCon=    12 RMS=1.74D-10 Max=3.39D-09
 LinEq1:  Iter= 21 NonCon=     8 RMS=6.41D-11 Max=1.38D-09
 LinEq1:  Iter= 22 NonCon=     5 RMS=1.39D-11 Max=2.20D-10
 LinEq1:  Iter= 23 NonCon=     0 RMS=6.38D-12 Max=8.63D-11
 Linear equations converged to 1.000D-11 1.000D-10 after    23 iterations.
 FullF1:  Do perturbations    1 to    12.
 Dipole-magnetic dipole polarizability for W=    0.071980:
                 1             2             3 
      1   0.534968D+01 -0.968858D+00 -0.770700D+01
      2  -0.854322D+01 -0.495353D+01 -0.189337D+02
      3   0.246699D+02  0.105100D+02  0.952024D+00
 w=    0.071980 a.u., Optical Rotation Beta=     -0.4494 au.
 Molar Mass =     90.5523 grams/mole, [Alpha] ( 6330.0 A) =     -166.25 deg.
 Dipole-magnetic dipole polarizability for W=    0.077357:
                 1             2             3 
      1   0.542576D+01 -0.957411D+00 -0.769754D+01
      2  -0.868153D+01 -0.500042D+01 -0.190028D+02
      3   0.248851D+02  0.106069D+02  0.972175D+00
 w=    0.077357 a.u., Optical Rotation Beta=     -0.4658 au.
 Molar Mass =     90.5523 grams/mole, [Alpha] ( 5890.0 A) =     -199.05 deg.
 Dipole-magnetic dipole polarizability for W=    0.104503:
                 1             2             3 
      1   0.595255D+01 -0.870016D+00 -0.762253D+01
      2  -0.962046D+01 -0.530819D+01 -0.194481D+02
      3   0.263797D+02  0.112751D+02  0.111607D+01
 w=    0.104503 a.u., Optical Rotation Beta=     -0.5868 au.
 Molar Mass =     90.5523 grams/mole, [Alpha] ( 4360.0 A) =     -457.59 deg.
 Dipole-magnetic dipole polarizability for W=    0.128347:
                 1             2             3 
      1   0.670380D+01 -0.724781D+00 -0.749470D+01
      2  -0.108976D+02 -0.569941D+01 -0.199977D+02
      3   0.285306D+02  0.122201D+02  0.133294D+01
 w=    0.128347 a.u., Optical Rotation Beta=     -0.7791 au.
 Molar Mass =     90.5523 grams/mole, [Alpha] ( 3550.0 A) =     -916.41 deg.
 End of Minotr Frequency-dependent properties on file   721 Mask=       2 NFrqRd=     4 NDeriv=     1 LenFil=      42:
 Frequencies=    0.071980    0.077357    0.104503    0.128347
 Property number 2 -- FD Optical Rotation Tensor frequency  1    0.071980:
                 1             2             3 
      1   0.534968D+01 -0.968858D+00 -0.770700D+01
      2  -0.854322D+01 -0.495353D+01 -0.189337D+02
      3   0.246699D+02  0.105100D+02  0.952024D+00
 Property number 2 -- FD Optical Rotation Tensor frequency  2    0.077357:
                 1             2             3 
      1   0.542576D+01 -0.957411D+00 -0.769754D+01
      2  -0.868153D+01 -0.500042D+01 -0.190028D+02
      3   0.248851D+02  0.106069D+02  0.972175D+00
 Property number 2 -- FD Optical Rotation Tensor frequency  3    0.104503:
                 1             2             3 
      1   0.595255D+01 -0.870016D+00 -0.762253D+01
      2  -0.962046D+01 -0.530819D+01 -0.194481D+02
      3   0.263797D+02  0.112751D+02  0.111607D+01
 Property number 2 -- FD Optical Rotation Tensor frequency  4    0.128347:
                 1             2             3 
      1   0.670380D+01 -0.724781D+00 -0.749470D+01
      2  -0.108976D+02 -0.569941D+01 -0.199977D+02
      3   0.285306D+02  0.122201D+02  0.133294D+01
 End of Minotr Frequency-dependent properties file   722 does not exist.
 Leave Link 1002 at Wed Jul 10 17:28:32 2013, MaxMem=  131072000 cpu:    2024.1
 (Enter /cerebro/home/software/apps/g09/l601.exe)
 Copying SCF densities to generalized density rwf, IOpCl= 0 IROHF=0.

 **********************************************************************

            Population analysis using the SCF density.

 **********************************************************************

 Orbital symmetries:
       Occupied  (A) (A) (A) (A) (A) (A) (A) (A) (A) (A) (A) (A)
                 (A) (A) (A) (A) (A) (A) (A) (A) (A) (A) (A) (A)
       Virtual   (A) (A) (A) (A) (A) (A) (A) (A) (A) (A) (A) (A)
                 (A) (A) (A) (A) (A) (A) (A) (A) (A) (A) (A) (A)
                 (A) (A) (A) (A) (A) (A) (A) (A) (A) (A) (A) (A)
                 (A) (A) (A) (A) (A) (A) (A) (A) (A) (A) (A) (A)
                 (A) (A) (A) (A) (A) (A) (A) (A) (A) (A) (A) (A)
                 (A) (A) (A) (A) (A) (A) (A) (A) (A) (A) (A) (A)
                 (A) (A) (A) (A) (A) (A) (A) (A) (A) (A) (A) (A)
                 (A) (A) (A) (A) (A) (A) (A) (A) (A) (A) (A) (A)
                 (A) (A) (A) (A) (A) (A) (A) (A) (A) (A) (A) (A)
                 (A) (A) (A) (A) (A) (A) (A) (A) (A) (A) (A) (A)
                 (A) (A) (A) (A) (A) (A) (A) (A) (A) (A) (A) (A)
                 (A) (A) (A) (A) (A) (A) (A) (A) (A) (A) (A)
 The electronic state is 1-A.
 Alpha  occ. eigenvalues -- -101.53373 -10.24314 -10.19321 -10.18458 -10.18281
 Alpha  occ. eigenvalues --   -9.44815  -7.21249  -7.20308  -7.20290  -0.86843
 Alpha  occ. eigenvalues --   -0.78721  -0.74236  -0.64072  -0.58282  -0.48714
 Alpha  occ. eigenvalues --   -0.47683  -0.44549  -0.41736  -0.40025  -0.37827
 Alpha  occ. eigenvalues --   -0.36571  -0.30626  -0.29881  -0.28049
 Alpha virt. eigenvalues --   -0.03304  -0.00753   0.00627   0.00833   0.02185
 Alpha virt. eigenvalues --    0.02832   0.03846   0.04128   0.06394   0.06516
 Alpha virt. eigenvalues --    0.07222   0.08331   0.08771   0.09922   0.11105
 Alpha virt. eigenvalues --    0.11566   0.11896   0.12200   0.13007   0.13078
 Alpha virt. eigenvalues --    0.13589   0.14213   0.15091   0.15684   0.16105
 Alpha virt. eigenvalues --    0.16476   0.17231   0.18377   0.19268   0.21837
 Alpha virt. eigenvalues --    0.21864   0.22706   0.24592   0.26067   0.27399
 Alpha virt. eigenvalues --    0.29128   0.34350   0.35688   0.39073   0.42623
 Alpha virt. eigenvalues --    0.43126   0.44698   0.45650   0.47993   0.48862
 Alpha virt. eigenvalues --    0.49597   0.52279   0.52744   0.56759   0.58713
 Alpha virt. eigenvalues --    0.59760   0.62599   0.63465   0.64660   0.65951
 Alpha virt. eigenvalues --    0.66362   0.69229   0.72617   0.73640   0.73858
 Alpha virt. eigenvalues --    0.78714   0.81386   0.83149   0.86299   0.89191
 Alpha virt. eigenvalues --    0.90314   0.94341   0.95978   1.00463   1.03127
 Alpha virt. eigenvalues --    1.06546   1.08471   1.12686   1.17536   1.19927
 Alpha virt. eigenvalues --    1.29199   1.39620   1.42867   1.44725   1.46906
 Alpha virt. eigenvalues --    1.50294   1.54203   1.55490   1.59005   1.59547
 Alpha virt. eigenvalues --    1.63127   1.66440   1.68970   1.70169   1.73172
 Alpha virt. eigenvalues --    1.77727   1.79080   1.87630   1.88416   1.94262
 Alpha virt. eigenvalues --    1.99773   2.02002   2.07448   2.12096   2.18248
 Alpha virt. eigenvalues --    2.19127   2.20330   2.26093   2.29415   2.31541
 Alpha virt. eigenvalues --    2.35743   2.37829   2.43427   2.46226   2.49277
 Alpha virt. eigenvalues --    2.51496   2.56109   2.58904   2.60038   2.62157
 Alpha virt. eigenvalues --    2.64843   2.73014   2.74275   2.75458   2.79196
 Alpha virt. eigenvalues --    2.84697   2.86039   2.92981   3.08088   3.10364
 Alpha virt. eigenvalues --    3.18760   3.41185   3.51110   3.71593   3.74288
 Alpha virt. eigenvalues --    3.82976   3.97426   4.14404   4.29471   9.75603
 Alpha virt. eigenvalues --   23.73819  23.82601  23.93977  24.25568  25.93175
 Alpha virt. eigenvalues --   25.97401  26.44588 215.74576
          Condensed to atoms (all electrons):
              1          2          3          4          5          6
     1  C    5.431338   0.131336  -0.006368   0.110233  -0.004330   0.378436
     2  C    0.131336   5.410939   0.033097  -0.114527  -0.026954  -0.053034
     3  C   -0.006368   0.033097   5.309418   0.423687  -0.038961   0.024191
     4  C    0.110233  -0.114527   0.423687   5.393862   0.386445  -0.011317
     5  H   -0.004330  -0.026954  -0.038961   0.386445   0.566652   0.000846
     6  H    0.378436  -0.053034   0.024191  -0.011317   0.000846   0.552351
     7  H    0.002739   0.020661  -0.011713   0.386201  -0.039171   0.000229
     8  H   -0.018185  -0.020258   0.338311  -0.036264   0.016184  -0.001708
     9  H   -0.046436   0.475920  -0.137043   0.005793   0.011562  -0.004487
    10  H    0.398277  -0.020925  -0.043587  -0.001044   0.002085  -0.018163
    11  H    0.359764  -0.047579   0.023835   0.004336  -0.000833  -0.028935
    12  Cl  -0.054263   0.027473   0.002597   0.066515   0.000707   0.012449
              7          8          9         10         11         12
     1  C    0.002739  -0.018185  -0.046436   0.398277   0.359764  -0.054263
     2  C    0.020661  -0.020258   0.475920  -0.020925  -0.047579   0.027473
     3  C   -0.011713   0.338311  -0.137043  -0.043587   0.023835   0.002597
     4  C    0.386201  -0.036264   0.005793  -0.001044   0.004336   0.066515
     5  H   -0.039171   0.016184   0.011562   0.002085  -0.000833   0.000707
     6  H    0.000229  -0.001708  -0.004487  -0.018163  -0.028935   0.012449
     7  H    0.536769  -0.020796  -0.002883  -0.000776   0.000173  -0.004352
     8  H   -0.020796   0.549755   0.007484   0.004067  -0.002997   0.020624
     9  H   -0.002883   0.007484   0.515935   0.008925  -0.014661  -0.046560
    10  H   -0.000776   0.004067   0.008925   0.542001  -0.035292   0.009992
    11  H    0.000173  -0.002997  -0.014661  -0.035292   0.582230   0.020132
    12  Cl  -0.004352   0.020624  -0.046560   0.009992   0.020132  17.006940
 Mulliken atomic charges:
              1
     1  C   -0.682541
     2  C    0.183851
     3  C    0.082537
     4  C   -0.613920
     5  H    0.125766
     6  H    0.149142
     7  H    0.132919
     8  H    0.163784
     9  H    0.226450
    10  H    0.154439
    11  H    0.139828
    12  Cl  -0.062254
 Sum of Mulliken atomic charges =   0.00000
 Mulliken charges with hydrogens summed into heavy atoms:
              1
     1  C   -0.239132
     2  C    0.410301
     3  C    0.246321
     4  C   -0.355235
    12  Cl  -0.062254
 Sum of Mulliken charges with hydrogens summed into heavy atoms =   0.00000
 Electronic spatial extent (au):  <R**2>=            628.4605
 Charge=              0.0000 electrons
 Dipole moment (field-independent basis, Debye):
    X=             -1.7384    Y=              1.5821    Z=             -0.3459  Tot=              2.3758
 Quadrupole moment (field-independent basis, Debye-Ang):
   XX=            -39.4296   YY=            -40.0584   ZZ=            -37.0933
   XY=              2.2969   XZ=              0.0460   YZ=             -0.2192
 Traceless Quadrupole moment (field-independent basis, Debye-Ang):
   XX=             -0.5691   YY=             -1.1980   ZZ=              1.7671
   XY=              2.2969   XZ=              0.0460   YZ=             -0.2192
 Octapole moment (field-independent basis, Debye-Ang**2):
  XXX=             -2.0707  YYY=              1.4984  ZZZ=             -0.5199  XYY=              4.2738
  XXY=             -4.7629  XXZ=              0.2762  XZZ=             -0.9894  YZZ=             -0.2904
  YYZ=             -0.2385  XYZ=             -0.3539
 Hexadecapole moment (field-independent basis, Debye-Ang**3):
 XXXX=           -489.6619 YYYY=           -277.5130 ZZZZ=            -80.5752 XXXY=              9.1436
 XXXZ=             -2.7404 YYYX=             -8.9625 YYYZ=             -2.0670 ZZZX=              1.2377
 ZZZY=              1.1047 XXYY=           -129.9602 XXZZ=            -95.9557 YYZZ=            -61.2476
 XXYZ=             -3.3544 YYXZ=              0.8141 ZZXY=              1.5131
 N-N= 2.118441520494D+02 E-N=-1.880454987352D+03  KE= 6.150686258017D+02
 No NMR shielding tensors so no spin-rotation constants.
 Leave Link  601 at Wed Jul 10 17:28:32 2013, MaxMem=  131072000 cpu:       0.3
 (Enter /cerebro/home/software/apps/g09/l9999.exe)
 AllDun Frequency-dependent properties on file 20721 Mask=       2 NFrqRd=     4 NDeriv=     1 LenFil=      42:
 Frequencies=    0.071980    0.077357    0.104503    0.128347
 Property number 2 -- FD Optical Rotation Tensor frequency  1    0.071980:
                 1             2             3 
      1   0.537118D+01 -0.945459D+00 -0.766407D+01
      2  -0.851982D+01 -0.497504D+01 -0.189511D+02
      3   0.246460D+02  0.105659D+02  0.952024D+00
 Property number 2 -- FD Optical Rotation Tensor frequency  2    0.077357:
                 1             2             3 
      1   0.544755D+01 -0.933732D+00 -0.765446D+01
      2  -0.865785D+01 -0.502221D+01 -0.190202D+02
      3   0.248610D+02  0.106633D+02  0.972175D+00
 Property number 2 -- FD Optical Rotation Tensor frequency  3    0.104503:
                 1             2             3 
      1   0.597626D+01 -0.844442D+00 -0.757843D+01
      2  -0.959489D+01 -0.533190D+01 -0.194653D+02
      3   0.263541D+02  0.113349D+02  0.111607D+01
 Property number 2 -- FD Optical Rotation Tensor frequency  4    0.128347:
                 1             2             3 
      1   0.673008D+01 -0.696612D+00 -0.744936D+01
      2  -0.108694D+02 -0.572569D+01 -0.200146D+02
      3   0.285028D+02  0.122847D+02  0.133294D+01
 1\1\GINC-COMPUTE-0-2\SP\RB3LYP\6-311++G(d,p)\C4H7Cl1\CRAWDAD\10-Jul-20
 13\0\\#P B3LYP/6-311++G** scf(conver=11) int=ultrafine polar=optrot cp
 hf(rdfreq,conver=11)\\(R)-3-chloro-1-butene tau=120\\0,1\C,0,0.4636520
 1,1.75519796,0.03918264\C,0,0.00535617,0.34981246,-0.32810849\C,0,-1.2
 0569318,-0.09677669,0.42756741\C,0,-2.33241334,-0.49789443,-0.15580617
 \H,0,-2.42818628,-0.55162761,-1.23837291\H,0,1.40418746,2.03087843,-0.
 52843641\H,0,-3.2000446,-0.78951512,0.42854612\H,0,-1.12926566,-0.0614
 9957,1.50243644\H,0,-0.14932641,0.26203238,-1.35397516\H,0,0.67818557,
 1.83323226,1.1291134\H,0,-0.29176205,2.44414412,-0.20412322\Cl,0,1.386
 06285,-0.83736992,0.02289419\\Version=EM64L-G09RevA.02\State=1-A\HF=-6
 16.8917419\RMSD=6.756e-12\Dipole=-0.685332,0.6209021,-0.1360891\Quadru
 pole=-0.4308759,-0.8829283,1.3138042,1.7087519,0.0345785,-0.1629021\PG
 =C01 [X(C4H7Cl1)]\\@


 There ain't no surer way to find out whether you
 like people or hate them than to travel with them.
                                     -- Mark Twain
 Job cpu time:  0 days  0 hours 38 minutes 17.7 seconds.
 File lengths (MBytes):  RWF=    119 Int=      0 D2E=      0 Chk=      2 Scr=      1
 Normal termination of Gaussian 09 at Wed Jul 10 17:28:32 2013.
