(R)-3-chloro-1-butene tau=120                                           
SP        RB3LYP                                                      6-311++G(d,p)       
Number of atoms                            I               12
Info1-9                                    I   N=           9
          26          26           0           0           0         110
           1          18        -502
Full Title                                 C   N=           3
(R)-3-chloro-1-butene tau=120       
Route                                      C   N=           7
#P B3LYP/6-311++G** scf(conver=11) int=ultrafine polar=optro
t cphf(rdfreq,conver=11)
Charge                                     I                0
Multiplicity                               I                1
Number of electrons                        I               48
Number of alpha electrons                  I               24
Number of beta electrons                   I               24
Number of basis functions                  I              167
Number of independent functions            I              167
Number of point charges in /Mol/           I                0
Number of translation vectors              I                0
Atomic numbers                             I   N=          12
           6           6           6           6           1           1
           1           1           1           1           1          17
Nuclear charges                            R   N=          12
  6.00000000E+00  6.00000000E+00  6.00000000E+00  6.00000000E+00  1.00000000E+00
  1.00000000E+00  1.00000000E+00  1.00000000E+00  1.00000000E+00  1.00000000E+00
  1.00000000E+00  1.70000000E+01
Current cartesian coordinates              R   N=          36
  8.82420277E-01  3.31507291E+00  7.32018838E-02  1.03500117E-02  6.61248770E-01
 -6.20877763E-01 -2.28010833E+00 -1.77493672E-01  8.07142733E-01 -4.41101326E+00
 -9.30668981E-01 -2.95273566E-01 -4.59222755E+00 -1.03179955E+00 -2.34102823E+00
  2.66095079E+00  3.83200411E+00 -9.99442668E-01 -6.05184345E+00 -1.47803499E+00
  8.08992227E-01 -2.13553054E+00 -1.11157065E-01  2.83835083E+00 -2.82332888E-01
  4.96031346E-01 -2.55948482E+00  1.28816311E+00  3.46161720E+00  2.13287252E+00
 -5.42151188E-01  4.62022435E+00 -3.86579558E-01  2.61441644E+00 -1.58810821E+00
  4.24211742E-02
Number of symbols in /Mol/                 I                0
Force Field                                I                0
Atom Types                                 C   N=          12
                                                            
                                                            
                        
Int Atom Types                             I   N=          12
           0           0           0           0           0           0
           0           0           0           0           0           0
MM charges                                 R   N=          12
  0.00000000E+00  0.00000000E+00  0.00000000E+00  0.00000000E+00  0.00000000E+00
  0.00000000E+00  0.00000000E+00  0.00000000E+00  0.00000000E+00  0.00000000E+00
  0.00000000E+00  0.00000000E+00
Integer atomic weights                     I   N=          12
          12          12          12          12           1           1
           1           1           1           1           1          35
Real atomic weights                        R   N=          12
  1.20000000E+01  1.20000000E+01  1.20000000E+01  1.20000000E+01  1.00782504E+00
  1.00782504E+00  1.00782504E+00  1.00782504E+00  1.00782504E+00  1.00782504E+00
  1.00782504E+00  3.49688527E+01
Atom fragment info                         I   N=          12
           0           0           0           0           0           0
           0           0           0           0           0           0
Atom residue num                           I   N=          12
           0           0           0           0           0           0
           0           0           0           0           0           0
Nuclear spins                              I   N=          12
           0           0           0           0           1           1
           1           1           1           1           1           3
Nuclear ZEff                               R   N=          12
 -3.60000000E+00 -3.60000000E+00 -3.60000000E+00 -3.60000000E+00 -1.00000000E+00
 -1.00000000E+00 -1.00000000E+00 -1.00000000E+00 -1.00000000E+00 -1.00000000E+00
 -1.00000000E+00 -1.42400000E+01
Nuclear ZNuc                               R   N=          12
  6.00000000E+00  6.00000000E+00  6.00000000E+00  6.00000000E+00  1.00000000E+00
  1.00000000E+00  1.00000000E+00  1.00000000E+00  1.00000000E+00  1.00000000E+00
  1.00000000E+00  1.70000000E+01
Nuclear QMom                               R   N=          12
  0.00000000E+00  0.00000000E+00  0.00000000E+00  0.00000000E+00  0.00000000E+00
  0.00000000E+00  0.00000000E+00  0.00000000E+00  0.00000000E+00  0.00000000E+00
  0.00000000E+00 -8.16500000E+00
Nuclear GFac                               R   N=          12
  0.00000000E+00  0.00000000E+00  0.00000000E+00  0.00000000E+00  2.79284600E+00
  2.79284600E+00  2.79284600E+00  2.79284600E+00  2.79284600E+00  2.79284600E+00
  2.79284600E+00  8.21874000E-01
MicOpt                                     I   N=          12
          -1          -1          -1          -1          -1          -1
          -1          -1          -1          -1          -1          -1
Number of residues                         I                0
Number of secondary structures             I                0
SymInf integers                            I   N=          26
           1           1           1           1           1           0
           0           0           0           0           0           0
           0           0           0           0           0           0
           0           0           0           0           0           0
           0           0
RotTr to input orientation                 R   N=          12
  9.99997432E-01  2.26631456E-03  0.00000000E+00 -2.26631456E-03  9.99997432E-01
  0.00000000E+00  0.00000000E+00  0.00000000E+00  1.00000000E+00  1.27030698E-03
 -2.20781035E-04  8.42574947E-04
Number of contracted shells                I               72
Number of primitive shells                 I              126
Pure/Cartesian d shells                    I                0
Pure/Cartesian f shells                    I                0
Highest angular momentum                   I                2
Largest degree of contraction              I                6
Shell types                                I   N=          72
           0          -1          -1          -1          -1          -2
           0          -1          -1          -1          -1          -2
           0          -1          -1          -1          -1          -2
           0          -1          -1          -1          -1          -2
           0           0           0           0           1           0
           0           0           0           1           0           0
           0           0           1           0           0           0
           0           1           0           0           0           0
           1           0           0           0           0           1
           0           0           0           0           1           0
           0           0           0           0           0          -1
           1           1           1           1           1          -2
Number of primitives per shell             I   N=          72
           6           3           1           1           1           1
           6           3           1           1           1           1
           6           3           1           1           1           1
           6           3           1           1           1           1
           3           1           1           1           1           3
           1           1           1           1           3           1
           1           1           1           3           1           1
           1           1           3           1           1           1
           1           3           1           1           1           1
           3           1           1           1           1           6
           3           1           1           1           1           1
           5           2           1           1           1           1
Shell to atom map                          I   N=          72
           1           1           1           1           1           1
           2           2           2           2           2           2
           3           3           3           3           3           3
           4           4           4           4           4           4
           5           5           5           5           5           6
           6           6           6           6           7           7
           7           7           7           8           8           8
           8           8           9           9           9           9
           9          10          10          10          10          10
          11          11          11          11          11          12
          12          12          12          12          12          12
          12          12          12          12          12          12
Primitive exponents                        R   N=         126
  4.56324000E+03  6.82024000E+02  1.54973000E+02  4.44553000E+01  1.30290000E+01
  1.82773000E+00  2.09642000E+01  4.80331000E+00  1.45933000E+00  4.83456000E-01
  1.45585000E-01  4.38000000E-02  6.26000000E-01  4.56324000E+03  6.82024000E+02
  1.54973000E+02  4.44553000E+01  1.30290000E+01  1.82773000E+00  2.09642000E+01
  4.80331000E+00  1.45933000E+00  4.83456000E-01  1.45585000E-01  4.38000000E-02
  6.26000000E-01  4.56324000E+03  6.82024000E+02  1.54973000E+02  4.44553000E+01
  1.30290000E+01  1.82773000E+00  2.09642000E+01  4.80331000E+00  1.45933000E+00
  4.83456000E-01  1.45585000E-01  4.38000000E-02  6.26000000E-01  4.56324000E+03
  6.82024000E+02  1.54973000E+02  4.44553000E+01  1.30290000E+01  1.82773000E+00
  2.09642000E+01  4.80331000E+00  1.45933000E+00  4.83456000E-01  1.45585000E-01
  4.38000000E-02  6.26000000E-01  3.38650000E+01  5.09479000E+00  1.15879000E+00
  3.25840000E-01  1.02741000E-01  3.60000000E-02  7.50000000E-01  3.38650000E+01
  5.09479000E+00  1.15879000E+00  3.25840000E-01  1.02741000E-01  3.60000000E-02
  7.50000000E-01  3.38650000E+01  5.09479000E+00  1.15879000E+00  3.25840000E-01
  1.02741000E-01  3.60000000E-02  7.50000000E-01  3.38650000E+01  5.09479000E+00
  1.15879000E+00  3.25840000E-01  1.02741000E-01  3.60000000E-02  7.50000000E-01
  3.38650000E+01  5.09479000E+00  1.15879000E+00  3.25840000E-01  1.02741000E-01
  3.60000000E-02  7.50000000E-01  3.38650000E+01  5.09479000E+00  1.15879000E+00
  3.25840000E-01  1.02741000E-01  3.60000000E-02  7.50000000E-01  3.38650000E+01
  5.09479000E+00  1.15879000E+00  3.25840000E-01  1.02741000E-01  3.60000000E-02
  7.50000000E-01  1.05819000E+05  1.58720000E+04  3.61965000E+03  1.03080000E+03
  3.39908000E+02  1.24538000E+02  1.24538000E+02  4.95135000E+01  2.08056000E+01
  6.58346000E+00  2.56468000E+00  5.59763000E-01  1.83273000E-01  4.83000000E-02
  5.89776000E+02  1.39849000E+02  4.51413000E+01  1.68733000E+01  2.77152000E+00
  6.74110000E+00  2.77152000E+00  1.02387000E+00  3.81368000E-01  1.09437000E-01
  7.50000000E-01
Contraction coefficients                   R   N=         126
  1.96665025E-03  1.52306019E-02  7.61269097E-02  2.60801033E-01  6.16462078E-01
  2.21006028E-01  1.14660081E-01  9.19999648E-01 -3.03068213E-03  1.00000000E+00
  1.00000000E+00  1.00000000E+00  1.00000000E+00  1.96665025E-03  1.52306019E-02
  7.61269097E-02  2.60801033E-01  6.16462078E-01  2.21006028E-01  1.14660081E-01
  9.19999648E-01 -3.03068213E-03  1.00000000E+00  1.00000000E+00  1.00000000E+00
  1.00000000E+00  1.96665025E-03  1.52306019E-02  7.61269097E-02  2.60801033E-01
  6.16462078E-01  2.21006028E-01  1.14660081E-01  9.19999648E-01 -3.03068213E-03
  1.00000000E+00  1.00000000E+00  1.00000000E+00  1.00000000E+00  1.96665025E-03
  1.52306019E-02  7.61269097E-02  2.60801033E-01  6.16462078E-01  2.21006028E-01
  1.14660081E-01  9.19999648E-01 -3.03068213E-03  1.00000000E+00  1.00000000E+00
  1.00000000E+00  1.00000000E+00  2.54938145E-02  1.90373109E-01  8.52161486E-01
  1.00000000E+00  1.00000000E+00  1.00000000E+00  1.00000000E+00  2.54938145E-02
  1.90373109E-01  8.52161486E-01  1.00000000E+00  1.00000000E+00  1.00000000E+00
  1.00000000E+00  2.54938145E-02  1.90373109E-01  8.52161486E-01  1.00000000E+00
  1.00000000E+00  1.00000000E+00  1.00000000E+00  2.54938145E-02  1.90373109E-01
  8.52161486E-01  1.00000000E+00  1.00000000E+00  1.00000000E+00  1.00000000E+00
  2.54938145E-02  1.90373109E-01  8.52161486E-01  1.00000000E+00  1.00000000E+00
  1.00000000E+00  1.00000000E+00  2.54938145E-02  1.90373109E-01  8.52161486E-01
  1.00000000E+00  1.00000000E+00  1.00000000E+00  1.00000000E+00  2.54938145E-02
  1.90373109E-01  8.52161486E-01  1.00000000E+00  1.00000000E+00  1.00000000E+00
  1.00000000E+00  7.38000247E-04  5.71800191E-03  2.94950099E-02  1.17286039E-01
  3.62949121E-01  5.84149195E-01  1.34176973E-01  6.24249876E-01  2.91755942E-01
  1.00000000E+00  1.00000000E+00  1.00000000E+00  1.00000000E+00  1.00000000E+00
  3.66556935E-03  2.83679194E-02  1.24756603E-01  3.39654631E-01  7.47585963E-01
 -1.57224381E+00  9.92388882E-01  1.00000000E+00  1.00000000E+00  1.00000000E+00
  1.00000000E+00
P(S=P) Contraction coefficients            R   N=         126
  0.00000000E+00  0.00000000E+00  0.00000000E+00  0.00000000E+00  0.00000000E+00
  0.00000000E+00  4.02486927E-02  2.37593957E-01  8.15853851E-01  1.00000000E+00
  1.00000000E+00  1.00000000E+00  0.00000000E+00  0.00000000E+00  0.00000000E+00
  0.00000000E+00  0.00000000E+00  0.00000000E+00  0.00000000E+00  4.02486927E-02
  2.37593957E-01  8.15853851E-01  1.00000000E+00  1.00000000E+00  1.00000000E+00
  0.00000000E+00  0.00000000E+00  0.00000000E+00  0.00000000E+00  0.00000000E+00
  0.00000000E+00  0.00000000E+00  4.02486927E-02  2.37593957E-01  8.15853851E-01
  1.00000000E+00  1.00000000E+00  1.00000000E+00  0.00000000E+00  0.00000000E+00
  0.00000000E+00  0.00000000E+00  0.00000000E+00  0.00000000E+00  0.00000000E+00
  4.02486927E-02  2.37593957E-01  8.15853851E-01  1.00000000E+00  1.00000000E+00
  1.00000000E+00  0.00000000E+00  0.00000000E+00  0.00000000E+00  0.00000000E+00
  0.00000000E+00  0.00000000E+00  0.00000000E+00  0.00000000E+00  0.00000000E+00
  0.00000000E+00  0.00000000E+00  0.00000000E+00  0.00000000E+00  0.00000000E+00
  0.00000000E+00  0.00000000E+00  0.00000000E+00  0.00000000E+00  0.00000000E+00
  0.00000000E+00  0.00000000E+00  0.00000000E+00  0.00000000E+00  0.00000000E+00
  0.00000000E+00  0.00000000E+00  0.00000000E+00  0.00000000E+00  0.00000000E+00
  0.00000000E+00  0.00000000E+00  0.00000000E+00  0.00000000E+00  0.00000000E+00
  0.00000000E+00  0.00000000E+00  0.00000000E+00  0.00000000E+00  0.00000000E+00
  0.00000000E+00  0.00000000E+00  0.00000000E+00  0.00000000E+00  0.00000000E+00
  0.00000000E+00  0.00000000E+00  0.00000000E+00  0.00000000E+00  0.00000000E+00
  0.00000000E+00  0.00000000E+00  0.00000000E+00  0.00000000E+00  0.00000000E+00
  0.00000000E+00  0.00000000E+00  0.00000000E+00  0.00000000E+00  0.00000000E+00
  0.00000000E+00  0.00000000E+00  0.00000000E+00  0.00000000E+00  1.00000000E+00
  0.00000000E+00  0.00000000E+00  0.00000000E+00  0.00000000E+00  0.00000000E+00
  0.00000000E+00  0.00000000E+00  0.00000000E+00  0.00000000E+00  0.00000000E+00
  0.00000000E+00
Coordinates of each shell                  R   N=         216
  8.82420277E-01  3.31507291E+00  7.32018838E-02  8.82420277E-01  3.31507291E+00
  7.32018838E-02  8.82420277E-01  3.31507291E+00  7.32018838E-02  8.82420277E-01
  3.31507291E+00  7.32018838E-02  8.82420277E-01  3.31507291E+00  7.32018838E-02
  8.82420277E-01  3.31507291E+00  7.32018838E-02  1.03500117E-02  6.61248770E-01
 -6.20877763E-01  1.03500117E-02  6.61248770E-01 -6.20877763E-01  1.03500117E-02
  6.61248770E-01 -6.20877763E-01  1.03500117E-02  6.61248770E-01 -6.20877763E-01
  1.03500117E-02  6.61248770E-01 -6.20877763E-01  1.03500117E-02  6.61248770E-01
 -6.20877763E-01 -2.28010833E+00 -1.77493672E-01  8.07142733E-01 -2.28010833E+00
 -1.77493672E-01  8.07142733E-01 -2.28010833E+00 -1.77493672E-01  8.07142733E-01
 -2.28010833E+00 -1.77493672E-01  8.07142733E-01 -2.28010833E+00 -1.77493672E-01
  8.07142733E-01 -2.28010833E+00 -1.77493672E-01  8.07142733E-01 -4.41101326E+00
 -9.30668981E-01 -2.95273566E-01 -4.41101326E+00 -9.30668981E-01 -2.95273566E-01
 -4.41101326E+00 -9.30668981E-01 -2.95273566E-01 -4.41101326E+00 -9.30668981E-01
 -2.95273566E-01 -4.41101326E+00 -9.30668981E-01 -2.95273566E-01 -4.41101326E+00
 -9.30668981E-01 -2.95273566E-01 -4.59222755E+00 -1.03179955E+00 -2.34102823E+00
 -4.59222755E+00 -1.03179955E+00 -2.34102823E+00 -4.59222755E+00 -1.03179955E+00
 -2.34102823E+00 -4.59222755E+00 -1.03179955E+00 -2.34102823E+00 -4.59222755E+00
 -1.03179955E+00 -2.34102823E+00  2.66095079E+00  3.83200411E+00 -9.99442668E-01
  2.66095079E+00  3.83200411E+00 -9.99442668E-01  2.66095079E+00  3.83200411E+00
 -9.99442668E-01  2.66095079E+00  3.83200411E+00 -9.99442668E-01  2.66095079E+00
  3.83200411E+00 -9.99442668E-01 -6.05184345E+00 -1.47803499E+00  8.08992227E-01
 -6.05184345E+00 -1.47803499E+00  8.08992227E-01 -6.05184345E+00 -1.47803499E+00
  8.08992227E-01 -6.05184345E+00 -1.47803499E+00  8.08992227E-01 -6.05184345E+00
 -1.47803499E+00  8.08992227E-01 -2.13553054E+00 -1.11157065E-01  2.83835083E+00
 -2.13553054E+00 -1.11157065E-01  2.83835083E+00 -2.13553054E+00 -1.11157065E-01
  2.83835083E+00 -2.13553054E+00 -1.11157065E-01  2.83835083E+00 -2.13553054E+00
 -1.11157065E-01  2.83835083E+00 -2.82332888E-01  4.96031346E-01 -2.55948482E+00
 -2.82332888E-01  4.96031346E-01 -2.55948482E+00 -2.82332888E-01  4.96031346E-01
 -2.55948482E+00 -2.82332888E-01  4.96031346E-01 -2.55948482E+00 -2.82332888E-01
  4.96031346E-01 -2.55948482E+00  1.28816311E+00  3.46161720E+00  2.13287252E+00
  1.28816311E+00  3.46161720E+00  2.13287252E+00  1.28816311E+00  3.46161720E+00
  2.13287252E+00  1.28816311E+00  3.46161720E+00  2.13287252E+00  1.28816311E+00
  3.46161720E+00  2.13287252E+00 -5.42151188E-01  4.62022435E+00 -3.86579558E-01
 -5.42151188E-01  4.62022435E+00 -3.86579558E-01 -5.42151188E-01  4.62022435E+00
 -3.86579558E-01 -5.42151188E-01  4.62022435E+00 -3.86579558E-01 -5.42151188E-01
  4.62022435E+00 -3.86579558E-01  2.61441644E+00 -1.58810821E+00  4.24211742E-02
  2.61441644E+00 -1.58810821E+00  4.24211742E-02  2.61441644E+00 -1.58810821E+00
  4.24211742E-02  2.61441644E+00 -1.58810821E+00  4.24211742E-02  2.61441644E+00
 -1.58810821E+00  4.24211742E-02  2.61441644E+00 -1.58810821E+00  4.24211742E-02
  2.61441644E+00 -1.58810821E+00  4.24211742E-02  2.61441644E+00 -1.58810821E+00
  4.24211742E-02  2.61441644E+00 -1.58810821E+00  4.24211742E-02  2.61441644E+00
 -1.58810821E+00  4.24211742E-02  2.61441644E+00 -1.58810821E+00  4.24211742E-02
  2.61441644E+00 -1.58810821E+00  4.24211742E-02  2.61441644E+00 -1.58810821E+00
  4.24211742E-02
Constraint Structure                       R   N=          36
  8.82420277E-01  3.31507291E+00  7.32018838E-02  1.03500117E-02  6.61248770E-01
 -6.20877763E-01 -2.28010833E+00 -1.77493672E-01  8.07142733E-01 -4.41101326E+00
 -9.30668981E-01 -2.95273566E-01 -4.59222755E+00 -1.03179955E+00 -2.34102823E+00
  2.66095079E+00  3.83200411E+00 -9.99442668E-01 -6.05184345E+00 -1.47803499E+00
  8.08992227E-01 -2.13553054E+00 -1.11157065E-01  2.83835083E+00 -2.82332888E-01
  4.96031346E-01 -2.55948482E+00  1.28816311E+00  3.46161720E+00  2.13287252E+00
 -5.42151188E-01  4.62022435E+00 -3.86579558E-01  2.61441644E+00 -1.58810821E+00
  4.24211742E-02
Num ILSW                                   I              100
ILSW                                       I   N=         100
           0           0           0           0           2           0
           0           0           0           0         402          -1
           5           0           0           0           0           0
           0           0           0           0           0           0
           1           0           0           0           0           0
           0           0      100000           0          -1           0
           0           0           0           0           0           0
           0           0           0           1           0           0
           0           0           1           0           0           0
           0           0           4          41           0           0
           0           0           5           0           0           0
           0           0           0           0           0           0
           0           0           0           0           0           0
           0           0           0           0           0           0
           0           0           0           0           0           0
           0           0           0           0           0           0
           0           0           0           0
Num RLSW                                   I               41
RLSW                                       R   N=          41
  8.00000000E-01  7.20000000E-01  1.00000000E+00  8.10000000E-01  2.00000000E-01
  0.00000000E+00  0.00000000E+00  1.00000000E+00  0.00000000E+00  0.00000000E+00
  0.00000000E+00  0.00000000E+00  1.00000000E+00  0.00000000E+00  0.00000000E+00
  0.00000000E+00  0.00000000E+00  1.00000000E+00  0.00000000E+00  0.00000000E+00
  0.00000000E+00  0.00000000E+00  1.00000000E+00  0.00000000E+00  0.00000000E+00
  0.00000000E+00  0.00000000E+00  1.00000000E+00  0.00000000E+00  0.00000000E+00
  0.00000000E+00  0.00000000E+00  0.00000000E+00  0.00000000E+00  0.00000000E+00
  0.00000000E+00  0.00000000E+00  0.00000000E+00  1.00000000E+00  1.00000000E+00
  0.00000000E+00
MxBond                                     I                4
NBond                                      I   N=          12
           4           4           3           3           1           1
           1           1           1           1           1           1
IBond                                      I   N=          48
           2           6          10          11           1           3
           9          12           2           4           8           0
           3           5           7           0           4           0
           0           0           1           0           0           0
           4           0           0           0           3           0
           0           0           2           0           0           0
           1           0           0           0           1           0
           0           0           2           0           0           0
RBond                                      R   N=          48
  1.00000000E+00  1.00000000E+00  1.00000000E+00  1.00000000E+00  1.00000000E+00
  1.00000000E+00  1.00000000E+00  1.00000000E+00  1.00000000E+00  2.00000000E+00
  1.00000000E+00  0.00000000E+00  2.00000000E+00  1.00000000E+00  1.00000000E+00
  0.00000000E+00  1.00000000E+00  0.00000000E+00  0.00000000E+00  0.00000000E+00
  1.00000000E+00  0.00000000E+00  0.00000000E+00  0.00000000E+00  1.00000000E+00
  0.00000000E+00  0.00000000E+00  0.00000000E+00  1.00000000E+00  0.00000000E+00
  0.00000000E+00  0.00000000E+00  1.00000000E+00  0.00000000E+00  0.00000000E+00
  0.00000000E+00  1.00000000E+00  0.00000000E+00  0.00000000E+00  0.00000000E+00
  1.00000000E+00  0.00000000E+00  0.00000000E+00  0.00000000E+00  1.00000000E+00
  0.00000000E+00  0.00000000E+00  0.00000000E+00
Virial Ratio                               R      2.002964085607464E+00
SCF Energy                                 R     -6.168917418630575E+02
Total Energy                               R     -6.168917418630575E+02
RMS Density                                R      6.755957289017069E-12
Nuclear derivative order                   I                0
External E-field                           R   N=          35
  0.00000000E+00  0.00000000E+00  0.00000000E+00  0.00000000E+00  0.00000000E+00
  0.00000000E+00  0.00000000E+00  0.00000000E+00  0.00000000E+00  0.00000000E+00
  0.00000000E+00  0.00000000E+00  0.00000000E+00  0.00000000E+00  0.00000000E+00
  0.00000000E+00  0.00000000E+00  0.00000000E+00  0.00000000E+00  0.00000000E+00
  0.00000000E+00  0.00000000E+00  0.00000000E+00  0.00000000E+00  0.00000000E+00
  0.00000000E+00  0.00000000E+00  0.00000000E+00  0.00000000E+00  0.00000000E+00
  0.00000000E+00  0.00000000E+00  0.00000000E+00  0.00000000E+00  0.00000000E+00
IOpCl                                      I                0
IROHF                                      I                0
Alpha Orbital Energies                     R   N=         167
 -1.01533731E+02 -1.02431356E+01 -1.01932052E+01 -1.01845786E+01 -1.01828082E+01
 -9.44815365E+00 -7.21249221E+00 -7.20308132E+00 -7.20290193E+00 -8.68434141E-01
 -7.87205204E-01 -7.42357185E-01 -6.40715531E-01 -5.82819140E-01 -4.87140141E-01
 -4.76831121E-01 -4.45490264E-01 -4.17364365E-01 -4.00247484E-01 -3.78266049E-01
 -3.65706238E-01 -3.06262861E-01 -2.98806049E-01 -2.80487184E-01 -3.30438943E-02
 -7.53492564E-03  6.26595272E-03  8.33044011E-03  2.18495199E-02  2.83205948E-02
  3.84593300E-02  4.12825522E-02  6.39395961E-02  6.51569902E-02  7.22225343E-02
  8.33055470E-02  8.77139080E-02  9.92244325E-02  1.11053327E-01  1.15657241E-01
  1.18963745E-01  1.21998393E-01  1.30072513E-01  1.30779340E-01  1.35885629E-01
  1.42134513E-01  1.50911281E-01  1.56837314E-01  1.61046475E-01  1.64760930E-01
  1.72306266E-01  1.83766162E-01  1.92684624E-01  2.18374384E-01  2.18637884E-01
  2.27055588E-01  2.45920400E-01  2.60671206E-01  2.73988659E-01  2.91277474E-01
  3.43500262E-01  3.56883153E-01  3.90733319E-01  4.26233298E-01  4.31256180E-01
  4.46975911E-01  4.56498440E-01  4.79927596E-01  4.88618434E-01  4.95967053E-01
  5.22787077E-01  5.27443869E-01  5.67587437E-01  5.87133369E-01  5.97602082E-01
  6.25989401E-01  6.34645621E-01  6.46595190E-01  6.59508884E-01  6.63619692E-01
  6.92291750E-01  7.26171925E-01  7.36397904E-01  7.38578498E-01  7.87136226E-01
  8.13863610E-01  8.31494433E-01  8.62989545E-01  8.91910599E-01  9.03135163E-01
  9.43405966E-01  9.59784117E-01  1.00462793E+00  1.03126696E+00  1.06545911E+00
  1.08470515E+00  1.12686457E+00  1.17535754E+00  1.19926645E+00  1.29198805E+00
  1.39620382E+00  1.42866779E+00  1.44725317E+00  1.46905936E+00  1.50294164E+00
  1.54203476E+00  1.55489857E+00  1.59004599E+00  1.59546809E+00  1.63127438E+00
  1.66439527E+00  1.68969528E+00  1.70169281E+00  1.73171707E+00  1.77727318E+00
  1.79080254E+00  1.87629562E+00  1.88416450E+00  1.94262363E+00  1.99772598E+00
  2.02002066E+00  2.07447588E+00  2.12096286E+00  2.18248446E+00  2.19126710E+00
  2.20329720E+00  2.26093412E+00  2.29414829E+00  2.31540954E+00  2.35743050E+00
  2.37828990E+00  2.43426730E+00  2.46225854E+00  2.49277038E+00  2.51496391E+00
  2.56108741E+00  2.58903526E+00  2.60037879E+00  2.62157460E+00  2.64842726E+00
  2.73013591E+00  2.74274834E+00  2.75457627E+00  2.79196100E+00  2.84696525E+00
  2.86039469E+00  2.92981188E+00  3.08088315E+00  3.10364394E+00  3.18759583E+00
  3.41184563E+00  3.51110313E+00  3.71592515E+00  3.74288156E+00  3.82976155E+00
  3.97426242E+00  4.14404259E+00  4.29470707E+00  9.75603406E+00  2.37381941E+01
  2.38260083E+01  2.39397683E+01  2.42556844E+01  2.59317469E+01  2.59740107E+01
  2.64458834E+01  2.15745763E+02
Alpha MO coefficients                      R   N=       27889
 -5.10279518E-08  2.54049816E-07 -2.53258166E-06 -2.10374636E-06 -1.41938979E-06
 -4.56290502E-06  1.74618194E-05  1.33904463E-05  1.03287948E-05  5.34675980E-06
  3.72684011E-05  3.13160111E-05  2.12960729E-05 -1.67641177E-03 -1.52897326E-04
  5.19736773E-04  3.50731451E-05  7.59710703E-06 -2.91418737E-06 -4.29970737E-06
  1.18081552E-05  5.81654098E-07  1.58134261E-06 -3.34395741E-06  1.20575014E-05
 -1.18350330E-05  5.40229516E-06 -1.31628181E-05 -1.39993551E-05  1.85102357E-05
 -2.34126407E-05  1.88465120E-04  1.24678704E-04 -1.19095967E-04 -9.04411506E-06
  3.78201551E-03 -4.73031363E-04  4.62173580E-04  8.38084337E-04  1.10782156E-05
 -8.68771704E-07  3.50698671E-06 -2.36871853E-06  7.66454375E-06 -5.64351111E-07
  1.65673527E-06  3.98373165E-06 -2.55505034E-06 -4.25800365E-06 -7.76135619E-06
 -2.36385460E-05  9.85883882E-06  2.62017189E-05  1.91829682E-05  1.15752152E-05
 -1.14851494E-05 -5.84047004E-05 -1.11706853E-03 -1.21851291E-03 -3.81708409E-04
 -9.99478897E-05  6.69395054E-06  5.83159620E-06 -5.82698786E-06  9.02754408E-07
 -4.23066811E-06  3.42925438E-07 -1.01208360E-06 -1.83386403E-06  5.93915545E-07
  6.57902284E-07  1.01524721E-05  8.85407492E-06 -2.11786177E-06  1.58534734E-06
 -5.70281590E-05 -8.58461987E-05 -2.01839880E-05  5.96504348E-05 -1.68311361E-03
 -3.43125833E-04 -1.81435068E-04 -1.23181059E-04 -5.00515124E-06 -1.77078451E-06
 -3.48824922E-06 -1.80570246E-06 -1.66607307E-06 -2.99173667E-06  3.40566235E-05
  5.93850473E-05  5.01537473E-05  6.70219847E-06 -4.33244184E-08  6.29133941E-06
  1.28299815E-05 -7.81243426E-05  7.81133055E-05  2.18509198E-04  6.86815590E-06
  1.25854243E-05 -9.88511158E-06  2.24721596E-06 -2.05026197E-05 -5.17946727E-05
 -1.31865002E-04 -8.58285753E-07 -2.18071089E-07  1.21976930E-06  5.70663639E-06
 -3.66967685E-05  6.11144072E-05  1.44837393E-04 -1.09504561E-05  2.01054784E-06
  1.40713096E-05 -2.83948297E-06 -6.75321098E-05 -1.27707392E-04  1.27264487E-04
 -6.17512239E-06  1.46876156E-06 -1.74037979E-05  1.02694824E-05 -6.07728756E-05
 -1.34808647E-05  8.39537173E-05 -4.52859192E-06  1.22920935E-05  1.45477215E-05
 -7.95636028E-06  4.28223553E-05 -1.41828400E-04 -3.31915829E-04  1.03001818E-06
 -5.84201181E-06 -3.85171780E-07  4.11609658E-01  6.54076192E-01  1.50038370E-02