(R)-3-chloro-1-butene tau=120                                           
SP        RB3LYP                                                      6-311++G(d,p)       
Number of atoms                            I               12
Info1-9                                    I   N=           9
          26          26           0           0           0         110
           1          18        -502
Full Title                                 C   N=           3
(R)-3-chloro-1-butene tau=120       
Route                                      C   N=           7
#P B3LYP/6-311++G** scf(conver=11) int=ultrafine polar=optro
t cphf(rdfreq,conver=11)
Charge                                     I                0
Multiplicity                               I                1
Number of electrons                        I               48
Number of alpha electrons                  I               24
Number of beta electrons                   I               24
Number of basis functions                  I              167
Number of independent functions            I              167
Number of point charges in /Mol/           I                0
Number of translation vectors              I                0
Atomic numbers                             I   N=          12
           6           6           6           6           1           1
           1           1           1           1           1          17
Nuclear charges                            R   N=          12
  6.00000000E+00  6.00000000E+00  6.00000000E+00  6.00000000E+00  1.00000000E+00
  1.00000000E+00  1.00000000E+00  1.00000000E+00  1.00000000E+00  1.00000000E+00
  1.00000000E+00  1.70000000E+01
Current cartesian coordinates              R   N=          36
  8.80632447E-01  3.31686333E+00  7.57256359E-02  2.20750223E-02  6.68723373E-01
 -6.11917282E-01 -2.34834007E+00 -2.13019543E-01  7.84804757E-01 -4.34470850E+00
 -9.27758621E-01 -2.65301466E-01 -4.66268503E+00 -1.07765981E+00 -2.28360842E+00
  2.58779972E+00  3.82139444E+00 -9.64683798E-01 -6.03955084E+00 -1.50115704E+00
  7.22961145E-01 -2.06943075E+00 -9.61391319E-02  2.81373484E+00 -3.27302685E-01
  4.73265088E-01 -2.63318797E+00  1.26682932E+00  3.46090041E+00  2.09873697E+00
 -6.13026755E-01  4.66560395E+00 -4.01098963E-01  2.62349492E+00 -1.57735642E+00
  4.39574310E-02
Number of symbols in /Mol/                 I                0
Force Field                                I                0
Atom Types                                 C   N=          12
                                                            
                                                            
                        
Int Atom Types                             I   N=          12
           0           0           0           0           0           0
           0           0           0           0           0           0
MM charges                                 R   N=          12
  0.00000000E+00  0.00000000E+00  0.00000000E+00  0.00000000E+00  0.00000000E+00
  0.00000000E+00  0.00000000E+00  0.00000000E+00  0.00000000E+00  0.00000000E+00
  0.00000000E+00  0.00000000E+00
Integer atomic weights                     I   N=          12
          12          12          12          12           1           1
           1           1           1           1           1          35
Real atomic weights                        R   N=          12
  1.20000000E+01  1.20000000E+01  1.20000000E+01  1.20000000E+01  1.00782504E+00
  1.00782504E+00  1.00782504E+00  1.00782504E+00  1.00782504E+00  1.00782504E+00
  1.00782504E+00  3.49688527E+01
Atom fragment info                         I   N=          12
           0           0           0           0           0           0
           0           0           0           0           0           0
Atom residue num                           I   N=          12
           0           0           0           0           0           0
           0           0           0           0           0           0
Nuclear spins                              I   N=          12
           0           0           0           0           1           1
           1           1           1           1           1           3
Nuclear ZEff                               R   N=          12
 -3.60000000E+00 -3.60000000E+00 -3.60000000E+00 -3.60000000E+00 -1.00000000E+00
 -1.00000000E+00 -1.00000000E+00 -1.00000000E+00 -1.00000000E+00 -1.00000000E+00
 -1.00000000E+00 -1.42400000E+01
Nuclear ZNuc                               R   N=          12
  6.00000000E+00  6.00000000E+00  6.00000000E+00  6.00000000E+00  1.00000000E+00
  1.00000000E+00  1.00000000E+00  1.00000000E+00  1.00000000E+00  1.00000000E+00
  1.00000000E+00  1.70000000E+01
Nuclear QMom                               R   N=          12
  0.00000000E+00  0.00000000E+00  0.00000000E+00  0.00000000E+00  0.00000000E+00
  0.00000000E+00  0.00000000E+00  0.00000000E+00  0.00000000E+00  0.00000000E+00
  0.00000000E+00 -8.16500000E+00
Nuclear GFac                               R   N=          12
  0.00000000E+00  0.00000000E+00  0.00000000E+00  0.00000000E+00  2.79284600E+00
  2.79284600E+00  2.79284600E+00  2.79284600E+00  2.79284600E+00  2.79284600E+00
  2.79284600E+00  8.21874000E-01
MicOpt                                     I   N=          12
          -1          -1          -1          -1          -1          -1
          -1          -1          -1          -1          -1          -1
Number of residues                         I                0
Number of secondary structures             I                0
SymInf integers                            I   N=          26
           1           1           1           1           1           0
           0           0           0           0           0           0
           0           0           0           0           0           0
           0           0           0           0           0           0
           0           0
RotTr to input orientation                 R   N=          12
  9.99998087E-01 -1.95600422E-03  0.00000000E+00  1.95600422E-03  9.99998087E-01
  0.00000000E+00  0.00000000E+00  0.00000000E+00  1.00000000E+00 -5.31587048E-04
 -2.34120926E-04 -7.26052859E-04
Number of contracted shells                I               72
Number of primitive shells                 I              126
Pure/Cartesian d shells                    I                0
Pure/Cartesian f shells                    I                0
Highest angular momentum                   I                2
Largest degree of contraction              I                6
Shell types                                I   N=          72
           0          -1          -1          -1          -1          -2
           0          -1          -1          -1          -1          -2
           0          -1          -1          -1          -1          -2
           0          -1          -1          -1          -1          -2
           0           0           0           0           1           0
           0           0           0           1           0           0
           0           0           1           0           0           0
           0           1           0           0           0           0
           1           0           0           0           0           1
           0           0           0           0           1           0
           0           0           0           0           0          -1
           1           1           1           1           1          -2
Number of primitives per shell             I   N=          72
           6           3           1           1           1           1
           6           3           1           1           1           1
           6           3           1           1           1           1
           6           3           1           1           1           1
           3           1           1           1           1           3
           1           1           1           1           3           1
           1           1           1           3           1           1
           1           1           3           1           1           1
           1           3           1           1           1           1
           3           1           1           1           1           6
           3           1           1           1           1           1
           5           2           1           1           1           1
Shell to atom map                          I   N=          72
           1           1           1           1           1           1
           2           2           2           2           2           2
           3           3           3           3           3           3
           4           4           4           4           4           4
           5           5           5           5           5           6
           6           6           6           6           7           7
           7           7           7           8           8           8
           8           8           9           9           9           9
           9          10          10          10          10          10
          11          11          11          11          11          12
          12          12          12          12          12          12
          12          12          12          12          12          12
Primitive exponents                        R   N=         126
  4.56324000E+03  6.82024000E+02  1.54973000E+02  4.44553000E+01  1.30290000E+01
  1.82773000E+00  2.09642000E+01  4.80331000E+00  1.45933000E+00  4.83456000E-01
  1.45585000E-01  4.38000000E-02  6.26000000E-01  4.56324000E+03  6.82024000E+02
  1.54973000E+02  4.44553000E+01  1.30290000E+01  1.82773000E+00  2.09642000E+01
  4.80331000E+00  1.45933000E+00  4.83456000E-01  1.45585000E-01  4.38000000E-02
  6.26000000E-01  4.56324000E+03  6.82024000E+02  1.54973000E+02  4.44553000E+01
  1.30290000E+01  1.82773000E+00  2.09642000E+01  4.80331000E+00  1.45933000E+00
  4.83456000E-01  1.45585000E-01  4.38000000E-02  6.26000000E-01  4.56324000E+03
  6.82024000E+02  1.54973000E+02  4.44553000E+01  1.30290000E+01  1.82773000E+00
  2.09642000E+01  4.80331000E+00  1.45933000E+00  4.83456000E-01  1.45585000E-01
  4.38000000E-02  6.26000000E-01  3.38650000E+01  5.09479000E+00  1.15879000E+00
  3.25840000E-01  1.02741000E-01  3.60000000E-02  7.50000000E-01  3.38650000E+01
  5.09479000E+00  1.15879000E+00  3.25840000E-01  1.02741000E-01  3.60000000E-02
  7.50000000E-01  3.38650000E+01  5.09479000E+00  1.15879000E+00  3.25840000E-01
  1.02741000E-01  3.60000000E-02  7.50000000E-01  3.38650000E+01  5.09479000E+00
  1.15879000E+00  3.25840000E-01  1.02741000E-01  3.60000000E-02  7.50000000E-01
  3.38650000E+01  5.09479000E+00  1.15879000E+00  3.25840000E-01  1.02741000E-01
  3.60000000E-02  7.50000000E-01  3.38650000E+01  5.09479000E+00  1.15879000E+00
  3.25840000E-01  1.02741000E-01  3.60000000E-02  7.50000000E-01  3.38650000E+01
  5.09479000E+00  1.15879000E+00  3.25840000E-01  1.02741000E-01  3.60000000E-02
  7.50000000E-01  1.05819000E+05  1.58720000E+04  3.61965000E+03  1.03080000E+03
  3.39908000E+02  1.24538000E+02  1.24538000E+02  4.95135000E+01  2.08056000E+01
  6.58346000E+00  2.56468000E+00  5.59763000E-01  1.83273000E-01  4.83000000E-02
  5.89776000E+02  1.39849000E+02  4.51413000E+01  1.68733000E+01  2.77152000E+00
  6.74110000E+00  2.77152000E+00  1.02387000E+00  3.81368000E-01  1.09437000E-01
  7.50000000E-01
Contraction coefficients                   R   N=         126
  1.96665025E-03  1.52306019E-02  7.61269097E-02  2.60801033E-01  6.16462078E-01
  2.21006028E-01  1.14660081E-01  9.19999648E-01 -3.03068213E-03  1.00000000E+00
  1.00000000E+00  1.00000000E+00  1.00000000E+00  1.96665025E-03  1.52306019E-02
  7.61269097E-02  2.60801033E-01  6.16462078E-01  2.21006028E-01  1.14660081E-01
  9.19999648E-01 -3.03068213E-03  1.00000000E+00  1.00000000E+00  1.00000000E+00
  1.00000000E+00  1.96665025E-03  1.52306019E-02  7.61269097E-02  2.60801033E-01
  6.16462078E-01  2.21006028E-01  1.14660081E-01  9.19999648E-01 -3.03068213E-03
  1.00000000E+00  1.00000000E+00  1.00000000E+00  1.00000000E+00  1.96665025E-03
  1.52306019E-02  7.61269097E-02  2.60801033E-01  6.16462078E-01  2.21006028E-01
  1.14660081E-01  9.19999648E-01 -3.03068213E-03  1.00000000E+00  1.00000000E+00
  1.00000000E+00  1.00000000E+00  2.54938145E-02  1.90373109E-01  8.52161486E-01
  1.00000000E+00  1.00000000E+00  1.00000000E+00  1.00000000E+00  2.54938145E-02
  1.90373109E-01  8.52161486E-01  1.00000000E+00  1.00000000E+00  1.00000000E+00
  1.00000000E+00  2.54938145E-02  1.90373109E-01  8.52161486E-01  1.00000000E+00
  1.00000000E+00  1.00000000E+00  1.00000000E+00  2.54938145E-02  1.90373109E-01
  8.52161486E-01  1.00000000E+00  1.00000000E+00  1.00000000E+00  1.00000000E+00
  2.54938145E-02  1.90373109E-01  8.52161486E-01  1.00000000E+00  1.00000000E+00
  1.00000000E+00  1.00000000E+00  2.54938145E-02  1.90373109E-01  8.52161486E-01
  1.00000000E+00  1.00000000E+00  1.00000000E+00  1.00000000E+00  2.54938145E-02
  1.90373109E-01  8.52161486E-01  1.00000000E+00  1.00000000E+00  1.00000000E+00
  1.00000000E+00  7.38000247E-04  5.71800191E-03  2.94950099E-02  1.17286039E-01
  3.62949121E-01  5.84149195E-01  1.34176973E-01  6.24249876E-01  2.91755942E-01
  1.00000000E+00  1.00000000E+00  1.00000000E+00  1.00000000E+00  1.00000000E+00
  3.66556935E-03  2.83679194E-02  1.24756603E-01  3.39654631E-01  7.47585963E-01
 -1.57224381E+00  9.92388882E-01  1.00000000E+00  1.00000000E+00  1.00000000E+00
  1.00000000E+00
P(S=P) Contraction coefficients            R   N=         126
  0.00000000E+00  0.00000000E+00  0.00000000E+00  0.00000000E+00  0.00000000E+00
  0.00000000E+00  4.02486927E-02  2.37593957E-01  8.15853851E-01  1.00000000E+00
  1.00000000E+00  1.00000000E+00  0.00000000E+00  0.00000000E+00  0.00000000E+00
  0.00000000E+00  0.00000000E+00  0.00000000E+00  0.00000000E+00  4.02486927E-02
  2.37593957E-01  8.15853851E-01  1.00000000E+00  1.00000000E+00  1.00000000E+00
  0.00000000E+00  0.00000000E+00  0.00000000E+00  0.00000000E+00  0.00000000E+00
  0.00000000E+00  0.00000000E+00  4.02486927E-02  2.37593957E-01  8.15853851E-01
  1.00000000E+00  1.00000000E+00  1.00000000E+00  0.00000000E+00  0.00000000E+00
  0.00000000E+00  0.00000000E+00  0.00000000E+00  0.00000000E+00  0.00000000E+00
  4.02486927E-02  2.37593957E-01  8.15853851E-01  1.00000000E+00  1.00000000E+00
  1.00000000E+00  0.00000000E+00  0.00000000E+00  0.00000000E+00  0.00000000E+00
  0.00000000E+00  0.00000000E+00  0.00000000E+00  0.00000000E+00  0.00000000E+00
  0.00000000E+00  0.00000000E+00  0.00000000E+00  0.00000000E+00  0.00000000E+00
  0.00000000E+00  0.00000000E+00  0.00000000E+00  0.00000000E+00  0.00000000E+00
  0.00000000E+00  0.00000000E+00  0.00000000E+00  0.00000000E+00  0.00000000E+00
  0.00000000E+00  0.00000000E+00  0.00000000E+00  0.00000000E+00  0.00000000E+00
  0.00000000E+00  0.00000000E+00  0.00000000E+00  0.00000000E+00  0.00000000E+00
  0.00000000E+00  0.00000000E+00  0.00000000E+00  0.00000000E+00  0.00000000E+00
  0.00000000E+00  0.00000000E+00  0.00000000E+00  0.00000000E+00  0.00000000E+00
  0.00000000E+00  0.00000000E+00  0.00000000E+00  0.00000000E+00  0.00000000E+00
  0.00000000E+00  0.00000000E+00  0.00000000E+00  0.00000000E+00  0.00000000E+00
  0.00000000E+00  0.00000000E+00  0.00000000E+00  0.00000000E+00  0.00000000E+00
  0.00000000E+00  0.00000000E+00  0.00000000E+00  0.00000000E+00  1.00000000E+00
  0.00000000E+00  0.00000000E+00  0.00000000E+00  0.00000000E+00  0.00000000E+00
  0.00000000E+00  0.00000000E+00  0.00000000E+00  0.00000000E+00  0.00000000E+00
  0.00000000E+00
Coordinates of each shell                  R   N=         216
  8.80632447E-01  3.31686333E+00  7.57256359E-02  8.80632447E-01  3.31686333E+00
  7.57256359E-02  8.80632447E-01  3.31686333E+00  7.57256359E-02  8.80632447E-01
  3.31686333E+00  7.57256359E-02  8.80632447E-01  3.31686333E+00  7.57256359E-02
  8.80632447E-01  3.31686333E+00  7.57256359E-02  2.20750223E-02  6.68723373E-01
 -6.11917282E-01  2.20750223E-02  6.68723373E-01 -6.11917282E-01  2.20750223E-02
  6.68723373E-01 -6.11917282E-01  2.20750223E-02  6.68723373E-01 -6.11917282E-01
  2.20750223E-02  6.68723373E-01 -6.11917282E-01  2.20750223E-02  6.68723373E-01
 -6.11917282E-01 -2.34834007E+00 -2.13019543E-01  7.84804757E-01 -2.34834007E+00
 -2.13019543E-01  7.84804757E-01 -2.34834007E+00 -2.13019543E-01  7.84804757E-01
 -2.34834007E+00 -2.13019543E-01  7.84804757E-01 -2.34834007E+00 -2.13019543E-01
  7.84804757E-01 -2.34834007E+00 -2.13019543E-01  7.84804757E-01 -4.34470850E+00
 -9.27758621E-01 -2.65301466E-01 -4.34470850E+00 -9.27758621E-01 -2.65301466E-01
 -4.34470850E+00 -9.27758621E-01 -2.65301466E-01 -4.34470850E+00 -9.27758621E-01
 -2.65301466E-01 -4.34470850E+00 -9.27758621E-01 -2.65301466E-01 -4.34470850E+00
 -9.27758621E-01 -2.65301466E-01 -4.66268503E+00 -1.07765981E+00 -2.28360842E+00
 -4.66268503E+00 -1.07765981E+00 -2.28360842E+00 -4.66268503E+00 -1.07765981E+00
 -2.28360842E+00 -4.66268503E+00 -1.07765981E+00 -2.28360842E+00 -4.66268503E+00
 -1.07765981E+00 -2.28360842E+00  2.58779972E+00  3.82139444E+00 -9.64683798E-01
  2.58779972E+00  3.82139444E+00 -9.64683798E-01  2.58779972E+00  3.82139444E+00
 -9.64683798E-01  2.58779972E+00  3.82139444E+00 -9.64683798E-01  2.58779972E+00
  3.82139444E+00 -9.64683798E-01 -6.03955084E+00 -1.50115704E+00  7.22961145E-01
 -6.03955084E+00 -1.50115704E+00  7.22961145E-01 -6.03955084E+00 -1.50115704E+00
  7.22961145E-01 -6.03955084E+00 -1.50115704E+00  7.22961145E-01 -6.03955084E+00
 -1.50115704E+00  7.22961145E-01 -2.06943075E+00 -9.61391319E-02  2.81373484E+00
 -2.06943075E+00 -9.61391319E-02  2.81373484E+00 -2.06943075E+00 -9.61391319E-02
  2.81373484E+00 -2.06943075E+00 -9.61391319E-02  2.81373484E+00 -2.06943075E+00
 -9.61391319E-02  2.81373484E+00 -3.27302685E-01  4.73265088E-01 -2.63318797E+00
 -3.27302685E-01  4.73265088E-01 -2.63318797E+00 -3.27302685E-01  4.73265088E-01
 -2.63318797E+00 -3.27302685E-01  4.73265088E-01 -2.63318797E+00 -3.27302685E-01
  4.73265088E-01 -2.63318797E+00  1.26682932E+00  3.46090041E+00  2.09873697E+00
  1.26682932E+00  3.46090041E+00  2.09873697E+00  1.26682932E+00  3.46090041E+00
  2.09873697E+00  1.26682932E+00  3.46090041E+00  2.09873697E+00  1.26682932E+00
  3.46090041E+00  2.09873697E+00 -6.13026755E-01  4.66560395E+00 -4.01098963E-01
 -6.13026755E-01  4.66560395E+00 -4.01098963E-01 -6.13026755E-01  4.66560395E+00
 -4.01098963E-01 -6.13026755E-01  4.66560395E+00 -4.01098963E-01 -6.13026755E-01
  4.66560395E+00 -4.01098963E-01  2.62349492E+00 -1.57735642E+00  4.39574310E-02
  2.62349492E+00 -1.57735642E+00  4.39574310E-02  2.62349492E+00 -1.57735642E+00
  4.39574310E-02  2.62349492E+00 -1.57735642E+00  4.39574310E-02  2.62349492E+00
 -1.57735642E+00  4.39574310E-02  2.62349492E+00 -1.57735642E+00  4.39574310E-02
  2.62349492E+00 -1.57735642E+00  4.39574310E-02  2.62349492E+00 -1.57735642E+00
  4.39574310E-02  2.62349492E+00 -1.57735642E+00  4.39574310E-02  2.62349492E+00
 -1.57735642E+00  4.39574310E-02  2.62349492E+00 -1.57735642E+00  4.39574310E-02
  2.62349492E+00 -1.57735642E+00  4.39574310E-02  2.62349492E+00 -1.57735642E+00
  4.39574310E-02
Constraint Structure                       R   N=          36
  8.80632447E-01  3.31686333E+00  7.57256359E-02  2.20750223E-02  6.68723373E-01
 -6.11917282E-01 -2.34834007E+00 -2.13019543E-01  7.84804757E-01 -4.34470850E+00
 -9.27758621E-01 -2.65301466E-01 -4.66268503E+00 -1.07765981E+00 -2.28360842E+00
  2.58779972E+00  3.82139444E+00 -9.64683798E-01 -6.03955084E+00 -1.50115704E+00
  7.22961145E-01 -2.06943075E+00 -9.61391319E-02  2.81373484E+00 -3.27302685E-01
  4.73265088E-01 -2.63318797E+00  1.26682932E+00  3.46090041E+00  2.09873697E+00
 -6.13026755E-01  4.66560395E+00 -4.01098963E-01  2.62349492E+00 -1.57735642E+00
  4.39574310E-02
Num ILSW                                   I              100
ILSW                                       I   N=         100
           0           0           0           0           2           0
           0           0           0           0         402          -1
           5           0           0           0           0           0
           0           0           0           0           0           0
           1           0           0           0           0           0
           0           0      100000           0          -1           0
           0           0           0           0           0           0
           0           0           0           1           0           0
           0           0           1           0           0           0
           0           0           4          41           0           0
           0           0           5           0           0           0
           0           0           0           0           0           0
           0           0           0           0           0           0
           0           0           0           0           0           0
           0           0           0           0           0           0
           0           0           0           0           0           0
           0           0           0           0
Num RLSW                                   I               41
RLSW                                       R   N=          41
  8.00000000E-01  7.20000000E-01  1.00000000E+00  8.10000000E-01  2.00000000E-01
  0.00000000E+00  0.00000000E+00  1.00000000E+00  0.00000000E+00  0.00000000E+00
  0.00000000E+00  0.00000000E+00  1.00000000E+00  0.00000000E+00  0.00000000E+00
  0.00000000E+00  0.00000000E+00  1.00000000E+00  0.00000000E+00  0.00000000E+00
  0.00000000E+00  0.00000000E+00  1.00000000E+00  0.00000000E+00  0.00000000E+00
  0.00000000E+00  0.00000000E+00  1.00000000E+00  0.00000000E+00  0.00000000E+00
  0.00000000E+00  0.00000000E+00  0.00000000E+00  0.00000000E+00  0.00000000E+00
  0.00000000E+00  0.00000000E+00  0.00000000E+00  1.00000000E+00  1.00000000E+00
  0.00000000E+00
MxBond                                     I                4
NBond                                      I   N=          12
           4           4           3           3           1           1
           1           1           1           1           1           1
IBond                                      I   N=          48
           2           6          10          11           1           3
           9          12           2           4           8           0
           3           5           7           0           4           0
           0           0           1           0           0           0
           4           0           0           0           3           0
           0           0           2           0           0           0
           1           0           0           0           1           0
           0           0           2           0           0           0
RBond                                      R   N=          48
  1.00000000E+00  1.00000000E+00  1.00000000E+00  1.00000000E+00  1.00000000E+00
  1.00000000E+00  1.00000000E+00  1.00000000E+00  1.00000000E+00  3.00000000E+00
  1.00000000E+00  0.00000000E+00  3.00000000E+00  1.00000000E+00  1.00000000E+00
  0.00000000E+00  1.00000000E+00  0.00000000E+00  0.00000000E+00  0.00000000E+00
  1.00000000E+00  0.00000000E+00  0.00000000E+00  0.00000000E+00  1.00000000E+00
  0.00000000E+00  0.00000000E+00  0.00000000E+00  1.00000000E+00  0.00000000E+00
  0.00000000E+00  0.00000000E+00  1.00000000E+00  0.00000000E+00  0.00000000E+00
  0.00000000E+00  1.00000000E+00  0.00000000E+00  0.00000000E+00  0.00000000E+00
  1.00000000E+00  0.00000000E+00  0.00000000E+00  0.00000000E+00  1.00000000E+00
  0.00000000E+00  0.00000000E+00  0.00000000E+00
Virial Ratio                               R      2.002698190897594E+00
SCF Energy                                 R     -6.168860211948406E+02
Total Energy                               R     -6.168860211948406E+02
RMS Density                                R      8.195833844000004E-12
Nuclear derivative order                   I                0
External E-field                           R   N=          35
  0.00000000E+00  0.00000000E+00  0.00000000E+00  0.00000000E+00  0.00000000E+00
  0.00000000E+00  0.00000000E+00  0.00000000E+00  0.00000000E+00  0.00000000E+00
  0.00000000E+00  0.00000000E+00  0.00000000E+00  0.00000000E+00  0.00000000E+00
  0.00000000E+00  0.00000000E+00  0.00000000E+00  0.00000000E+00  0.00000000E+00
  0.00000000E+00  0.00000000E+00  0.00000000E+00  0.00000000E+00  0.00000000E+00
  0.00000000E+00  0.00000000E+00  0.00000000E+00  0.00000000E+00  0.00000000E+00
  0.00000000E+00  0.00000000E+00  0.00000000E+00  0.00000000E+00  0.00000000E+00
IOpCl                                      I                0
IROHF                                      I                0
Alpha Orbital Energies                     R   N=         167
 -1.01534448E+02 -1.02465914E+01 -1.01851277E+01 -1.01812067E+01 -1.01726630E+01
 -9.44879253E+00 -7.21313812E+00 -7.20371044E+00 -7.20356639E+00 -8.66570079E-01
 -7.97217285E-01 -7.45336442E-01 -6.37546996E-01 -5.77060970E-01 -4.93953103E-01
 -4.74270626E-01 -4.46988568E-01 -4.21558209E-01 -4.02132538E-01 -3.75740364E-01
 -3.52969768E-01 -3.08650962E-01 -2.98787377E-01 -2.89524181E-01 -2.16777013E-02
 -7.21823377E-03  6.32751715E-03  7.99579252E-03  2.41656832E-02  2.82124515E-02
  3.91869462E-02  4.10238627E-02  6.42886092E-02  6.54796662E-02  7.26981830E-02
  8.38986596E-02  8.93971361E-02  9.96548302E-02  1.11108964E-01  1.15152911E-01
  1.19199244E-01  1.22817890E-01  1.27415816E-01  1.30066386E-01  1.35494341E-01
  1.42273087E-01  1.51016596E-01  1.56120332E-01  1.59799386E-01  1.65634528E-01
  1.72516448E-01  1.90201326E-01  1.93200167E-01  2.12163653E-01  2.20819048E-01
  2.28035510E-01  2.49797043E-01  2.60699564E-01  2.70788234E-01  2.92865246E-01
  3.39891485E-01  3.58325077E-01  4.09496261E-01  4.24299357E-01  4.31698264E-01
  4.47140034E-01  4.58244177E-01  4.80024229E-01  4.85791208E-01  4.94773043E-01
  5.24032032E-01  5.39312221E-01  5.64834593E-01  5.84741280E-01  6.00296358E-01
  6.26758919E-01  6.37310250E-01  6.43317735E-01  6.60777974E-01  6.61371435E-01
  6.88435752E-01  7.07039682E-01  7.34447049E-01  7.51672184E-01  7.83317034E-01
  8.21819787E-01  8.41235954E-01  8.72005622E-01  8.91528997E-01  9.20963345E-01
  9.51447943E-01  9.60144800E-01  1.00699371E+00  1.03707218E+00  1.07007774E+00
  1.09126438E+00  1.13560933E+00  1.18549365E+00  1.19704414E+00  1.28959224E+00
  1.39682591E+00  1.44647554E+00  1.45290797E+00  1.48270670E+00  1.50888399E+00
  1.56114917E+00  1.57691608E+00  1.58933259E+00  1.60037377E+00  1.63173341E+00
  1.67165667E+00  1.69393319E+00  1.70549224E+00  1.72878776E+00  1.76514036E+00
  1.79113303E+00  1.87278731E+00  1.88340157E+00  1.94084231E+00  1.99733326E+00
  2.04359843E+00  2.07621982E+00  2.14647987E+00  2.17954999E+00  2.20459660E+00
  2.22696082E+00  2.29187185E+00  2.30380723E+00  2.32206194E+00  2.36103156E+00
  2.38433216E+00  2.45639906E+00  2.48166780E+00  2.48595281E+00  2.53486212E+00
  2.56333219E+00  2.58259039E+00  2.60552720E+00  2.61605311E+00  2.64289064E+00
  2.73718011E+00  2.74155746E+00  2.76523566E+00  2.79609066E+00  2.85234999E+00
  2.86677408E+00  2.93925581E+00  3.06155056E+00  3.14123000E+00  3.17985933E+00
  3.43654190E+00  3.61416634E+00  3.69655340E+00  3.79531739E+00  3.79993810E+00
  3.93476100E+00  4.09383220E+00  4.24888717E+00  9.75578910E+00  2.36943740E+01
  2.37568405E+01  2.39445606E+01  2.46007302E+01  2.59282901E+01  2.59787950E+01
  2.64440281E+01  2.15745204E+02
Alpha MO coefficients                      R   N=       27889
  1.56955147E-07 -3.21022597E-07 -2.59376771E-06 -2.24087205E-06 -1.25410585E-06
 -4.06295322E-08  1.96826552E-05  1.55777940E-05  9.25578082E-06  2.34413263E-05
  4.00674298E-05  2.29843157E-05  2.06751004E-05 -1.66971299E-03 -1.45077985E-04
  5.01781274E-04  3.88304084E-05  7.57528503E-06 -3.44070869E-06 -4.65126347E-06
  1.31304535E-05  5.52301671E-07  1.45558949E-06 -2.98475473E-06  1.22563789E-05
 -1.21259212E-05  5.88657975E-06 -1.59046735E-05 -1.36578010E-05  2.01650758E-05
 -2.23551876E-05  1.82025164E-04  1.16876031E-04 -1.30905123E-04 -1.03403703E-05
  3.54470844E-03 -4.80560255E-04  4.68808006E-04  7.85031524E-04  9.61792299E-06
  3.61118527E-07  4.40433847E-06 -2.25679499E-06  8.43038865E-06 -3.61981689E-07
  1.12366211E-06  4.53284531E-06 -2.88778946E-06 -4.21390203E-06 -4.97526390E-06
 -2.56230271E-05  1.03670932E-05  2.49772822E-05  2.48643022E-05  1.52908828E-05
 -8.69610796E-06 -4.00516169E-05 -5.21937720E-04 -1.30064820E-03 -4.16083690E-04
 -1.27185244E-04  6.98925352E-06  8.13415332E-06 -5.24861390E-06  1.61375517E-06
 -2.60739106E-06  2.38049087E-07 -7.24190066E-07 -1.30737506E-06  7.59571893E-07
  5.19961644E-07  8.26797327E-06  5.03539970E-06 -4.22229575E-06  9.04167316E-07
 -5.05464930E-05 -7.66429670E-05 -1.66995215E-05  4.65843928E-05 -2.09810465E-03
 -3.71918450E-04 -1.97229209E-04 -2.05393703E-04 -4.27752870E-06 -3.01460517E-06
 -4.27777759E-06 -1.59143904E-06 -2.32567396E-06 -2.63464769E-06  2.85806906E-05
  4.36230509E-05  1.47259679E-05  7.28967796E-06 -5.87433751E-08  5.03938961E-06
  1.25009472E-05 -8.60846789E-05  8.14177952E-05  2.24176600E-04  8.29699929E-06
  1.32238564E-05 -1.14587830E-05  1.98571340E-06 -2.01251840E-05 -3.48271118E-05
 -9.98301516E-05 -1.38438220E-06 -5.78682215E-07  1.38266705E-06  6.85618087E-06
 -4.57640097E-05  4.79711313E-05  1.21861983E-04 -1.11123660E-05  1.69030162E-06
  1.54779754E-05 -8.42643740E-07 -6.68017574E-05 -1.10717139E-04  1.17216323E-04
 -7.05551751E-06  2.66269555E-06 -1.75041546E-05  1.02343946E-05 -6.40149562E-05
 -1.54672908E-05  7.69854337E-05 -5.00537588E-06  1.24417252E-05  1.53216170E-05
 -7.98718091E-06  3.99998438E-05 -1.28536372E-04 -3.02848978E-04  5.02701135E-07
 -5.33433892E-06 -3.22878227E-07  4.11609719E-01  6.54076192E-01  1.50036952E-02