(R)-3-chloro-1-butene tau=120                                           
SP        RB3LYP                                                      6-311++G(d,p)       
Number of atoms                            I               12
Info1-9                                    I   N=           9
          26          26           0           0           0         110
           1          18        -502
Full Title                                 C   N=           3
(R)-3-chloro-1-butene tau=120       
Route                                      C   N=           7
#P B3LYP/6-311++G** scf(conver=11) int=ultrafine polar=optro
t cphf(rdfreq,conver=11)
Charge                                     I                0
Multiplicity                               I                1
Number of electrons                        I               48
Number of alpha electrons                  I               24
Number of beta electrons                   I               24
Number of basis functions                  I              167
Number of independent functions            I              167
Number of point charges in /Mol/           I                0
Number of translation vectors              I                0
Atomic numbers                             I   N=          12
           6           6           6           6           1           1
           1           1           1           1           1          17
Nuclear charges                            R   N=          12
  6.00000000E+00  6.00000000E+00  6.00000000E+00  6.00000000E+00  1.00000000E+00
  1.00000000E+00  1.00000000E+00  1.00000000E+00  1.00000000E+00  1.00000000E+00
  1.00000000E+00  1.70000000E+01
Current cartesian coordinates              R   N=          36
  8.68229732E-01  3.32764262E+00  8.78611425E-02  2.28052731E-02  6.72244064E-01
 -6.29845972E-01 -2.26208101E+00 -1.88070085E-01  7.86751891E-01 -4.40439188E+00
 -9.52528293E-01 -2.83465549E-01 -4.62444240E+00 -1.04310158E+00 -2.32161868E+00
  2.78823599E+00  3.72648196E+00 -6.50775599E-01 -6.01525532E+00 -1.51901688E+00
  8.48275333E-01 -2.09022114E+00 -1.37081747E-01  2.83434253E+00 -2.59419801E-01
  5.06318226E-01 -2.66238884E+00  8.78746726E-01  3.56437231E+00  2.17547602E+00
 -4.85261751E-01  4.70551310E+00 -7.40323829E-01  2.61530853E+00 -1.58583619E+00
  4.40708232E-02
Number of symbols in /Mol/                 I                0
Force Field                                I                0
Atom Types                                 C   N=          12
                                                            
                                                            
                        
Int Atom Types                             I   N=          12
           0           0           0           0           0           0
           0           0           0           0           0           0
MM charges                                 R   N=          12
  0.00000000E+00  0.00000000E+00  0.00000000E+00  0.00000000E+00  0.00000000E+00
  0.00000000E+00  0.00000000E+00  0.00000000E+00  0.00000000E+00  0.00000000E+00
  0.00000000E+00  0.00000000E+00
Integer atomic weights                     I   N=          12
          12          12          12          12           1           1
           1           1           1           1           1          35
Real atomic weights                        R   N=          12
  1.20000000E+01  1.20000000E+01  1.20000000E+01  1.20000000E+01  1.00782504E+00
  1.00782504E+00  1.00782504E+00  1.00782504E+00  1.00782504E+00  1.00782504E+00
  1.00782504E+00  3.49688527E+01
Atom fragment info                         I   N=          12
           0           0           0           0           0           0
           0           0           0           0           0           0
Atom residue num                           I   N=          12
           0           0           0           0           0           0
           0           0           0           0           0           0
Nuclear spins                              I   N=          12
           0           0           0           0           1           1
           1           1           1           1           1           3
Nuclear ZEff                               R   N=          12
 -3.60000000E+00 -3.60000000E+00 -3.60000000E+00 -3.60000000E+00 -1.00000000E+00
 -1.00000000E+00 -1.00000000E+00 -1.00000000E+00 -1.00000000E+00 -1.00000000E+00
 -1.00000000E+00 -1.42400000E+01
Nuclear ZNuc                               R   N=          12
  6.00000000E+00  6.00000000E+00  6.00000000E+00  6.00000000E+00  1.00000000E+00
  1.00000000E+00  1.00000000E+00  1.00000000E+00  1.00000000E+00  1.00000000E+00
  1.00000000E+00  1.70000000E+01
Nuclear QMom                               R   N=          12
  0.00000000E+00  0.00000000E+00  0.00000000E+00  0.00000000E+00  0.00000000E+00
  0.00000000E+00  0.00000000E+00  0.00000000E+00  0.00000000E+00  0.00000000E+00
  0.00000000E+00 -8.16500000E+00
Nuclear GFac                               R   N=          12
  0.00000000E+00  0.00000000E+00  0.00000000E+00  0.00000000E+00  2.79284600E+00
  2.79284600E+00  2.79284600E+00  2.79284600E+00  2.79284600E+00  2.79284600E+00
  2.79284600E+00  8.21874000E-01
MicOpt                                     I   N=          12
          -1          -1          -1          -1          -1          -1
          -1          -1          -1          -1          -1          -1
Number of residues                         I                0
Number of secondary structures             I                0
SymInf integers                            I   N=          26
           1           1           1           1           1           0
           0           0           0           0           0           0
           0           0           0           0           0           0
           0           0           0           0           0           0
           0           0
RotTr to input orientation                 R   N=          12
  9.99994765E-01 -1.33893687E-03 -2.94581240E-03  1.33871917E-03  9.99999101E-01
 -7.58716487E-05  2.94591134E-03  7.19276359E-05  9.99995658E-01  1.12706416E-05
  4.02784496E-04  1.09883205E-03
Number of contracted shells                I               72
Number of primitive shells                 I              126
Pure/Cartesian d shells                    I                0
Pure/Cartesian f shells                    I                0
Highest angular momentum                   I                2
Largest degree of contraction              I                6
Shell types                                I   N=          72
           0          -1          -1          -1          -1          -2
           0          -1          -1          -1          -1          -2
           0          -1          -1          -1          -1          -2
           0          -1          -1          -1          -1          -2
           0           0           0           0           1           0
           0           0           0           1           0           0
           0           0           1           0           0           0
           0           1           0           0           0           0
           1           0           0           0           0           1
           0           0           0           0           1           0
           0           0           0           0           0          -1
           1           1           1           1           1          -2
Number of primitives per shell             I   N=          72
           6           3           1           1           1           1
           6           3           1           1           1           1
           6           3           1           1           1           1
           6           3           1           1           1           1
           3           1           1           1           1           3
           1           1           1           1           3           1
           1           1           1           3           1           1
           1           1           3           1           1           1
           1           3           1           1           1           1
           3           1           1           1           1           6
           3           1           1           1           1           1
           5           2           1           1           1           1
Shell to atom map                          I   N=          72
           1           1           1           1           1           1
           2           2           2           2           2           2
           3           3           3           3           3           3
           4           4           4           4           4           4
           5           5           5           5           5           6
           6           6           6           6           7           7
           7           7           7           8           8           8
           8           8           9           9           9           9
           9          10          10          10          10          10
          11          11          11          11          11          12
          12          12          12          12          12          12
          12          12          12          12          12          12
Primitive exponents                        R   N=         126
  4.56324000E+03  6.82024000E+02  1.54973000E+02  4.44553000E+01  1.30290000E+01
  1.82773000E+00  2.09642000E+01  4.80331000E+00  1.45933000E+00  4.83456000E-01
  1.45585000E-01  4.38000000E-02  6.26000000E-01  4.56324000E+03  6.82024000E+02
  1.54973000E+02  4.44553000E+01  1.30290000E+01  1.82773000E+00  2.09642000E+01
  4.80331000E+00  1.45933000E+00  4.83456000E-01  1.45585000E-01  4.38000000E-02
  6.26000000E-01  4.56324000E+03  6.82024000E+02  1.54973000E+02  4.44553000E+01
  1.30290000E+01  1.82773000E+00  2.09642000E+01  4.80331000E+00  1.45933000E+00
  4.83456000E-01  1.45585000E-01  4.38000000E-02  6.26000000E-01  4.56324000E+03
  6.82024000E+02  1.54973000E+02  4.44553000E+01  1.30290000E+01  1.82773000E+00
  2.09642000E+01  4.80331000E+00  1.45933000E+00  4.83456000E-01  1.45585000E-01
  4.38000000E-02  6.26000000E-01  3.38650000E+01  5.09479000E+00  1.15879000E+00
  3.25840000E-01  1.02741000E-01  3.60000000E-02  7.50000000E-01  3.38650000E+01
  5.09479000E+00  1.15879000E+00  3.25840000E-01  1.02741000E-01  3.60000000E-02
  7.50000000E-01  3.38650000E+01  5.09479000E+00  1.15879000E+00  3.25840000E-01
  1.02741000E-01  3.60000000E-02  7.50000000E-01  3.38650000E+01  5.09479000E+00
  1.15879000E+00  3.25840000E-01  1.02741000E-01  3.60000000E-02  7.50000000E-01
  3.38650000E+01  5.09479000E+00  1.15879000E+00  3.25840000E-01  1.02741000E-01
  3.60000000E-02  7.50000000E-01  3.38650000E+01  5.09479000E+00  1.15879000E+00
  3.25840000E-01  1.02741000E-01  3.60000000E-02  7.50000000E-01  3.38650000E+01
  5.09479000E+00  1.15879000E+00  3.25840000E-01  1.02741000E-01  3.60000000E-02
  7.50000000E-01  1.05819000E+05  1.58720000E+04  3.61965000E+03  1.03080000E+03
  3.39908000E+02  1.24538000E+02  1.24538000E+02  4.95135000E+01  2.08056000E+01
  6.58346000E+00  2.56468000E+00  5.59763000E-01  1.83273000E-01  4.83000000E-02
  5.89776000E+02  1.39849000E+02  4.51413000E+01  1.68733000E+01  2.77152000E+00
  6.74110000E+00  2.77152000E+00  1.02387000E+00  3.81368000E-01  1.09437000E-01
  7.50000000E-01
Contraction coefficients                   R   N=         126
  1.96665025E-03  1.52306019E-02  7.61269097E-02  2.60801033E-01  6.16462078E-01
  2.21006028E-01  1.14660081E-01  9.19999648E-01 -3.03068213E-03  1.00000000E+00
  1.00000000E+00  1.00000000E+00  1.00000000E+00  1.96665025E-03  1.52306019E-02
  7.61269097E-02  2.60801033E-01  6.16462078E-01  2.21006028E-01  1.14660081E-01
  9.19999648E-01 -3.03068213E-03  1.00000000E+00  1.00000000E+00  1.00000000E+00
  1.00000000E+00  1.96665025E-03  1.52306019E-02  7.61269097E-02  2.60801033E-01
  6.16462078E-01  2.21006028E-01  1.14660081E-01  9.19999648E-01 -3.03068213E-03
  1.00000000E+00  1.00000000E+00  1.00000000E+00  1.00000000E+00  1.96665025E-03
  1.52306019E-02  7.61269097E-02  2.60801033E-01  6.16462078E-01  2.21006028E-01
  1.14660081E-01  9.19999648E-01 -3.03068213E-03  1.00000000E+00  1.00000000E+00
  1.00000000E+00  1.00000000E+00  2.54938145E-02  1.90373109E-01  8.52161486E-01
  1.00000000E+00  1.00000000E+00  1.00000000E+00  1.00000000E+00  2.54938145E-02
  1.90373109E-01  8.52161486E-01  1.00000000E+00  1.00000000E+00  1.00000000E+00
  1.00000000E+00  2.54938145E-02  1.90373109E-01  8.52161486E-01  1.00000000E+00
  1.00000000E+00  1.00000000E+00  1.00000000E+00  2.54938145E-02  1.90373109E-01
  8.52161486E-01  1.00000000E+00  1.00000000E+00  1.00000000E+00  1.00000000E+00
  2.54938145E-02  1.90373109E-01  8.52161486E-01  1.00000000E+00  1.00000000E+00
  1.00000000E+00  1.00000000E+00  2.54938145E-02  1.90373109E-01  8.52161486E-01
  1.00000000E+00  1.00000000E+00  1.00000000E+00  1.00000000E+00  2.54938145E-02
  1.90373109E-01  8.52161486E-01  1.00000000E+00  1.00000000E+00  1.00000000E+00
  1.00000000E+00  7.38000247E-04  5.71800191E-03  2.94950099E-02  1.17286039E-01
  3.62949121E-01  5.84149195E-01  1.34176973E-01  6.24249876E-01  2.91755942E-01
  1.00000000E+00  1.00000000E+00  1.00000000E+00  1.00000000E+00  1.00000000E+00
  3.66556935E-03  2.83679194E-02  1.24756603E-01  3.39654631E-01  7.47585963E-01
 -1.57224381E+00  9.92388882E-01  1.00000000E+00  1.00000000E+00  1.00000000E+00
  1.00000000E+00
P(S=P) Contraction coefficients            R   N=         126
  0.00000000E+00  0.00000000E+00  0.00000000E+00  0.00000000E+00  0.00000000E+00
  0.00000000E+00  4.02486927E-02  2.37593957E-01  8.15853851E-01  1.00000000E+00
  1.00000000E+00  1.00000000E+00  0.00000000E+00  0.00000000E+00  0.00000000E+00
  0.00000000E+00  0.00000000E+00  0.00000000E+00  0.00000000E+00  4.02486927E-02
  2.37593957E-01  8.15853851E-01  1.00000000E+00  1.00000000E+00  1.00000000E+00
  0.00000000E+00  0.00000000E+00  0.00000000E+00  0.00000000E+00  0.00000000E+00
  0.00000000E+00  0.00000000E+00  4.02486927E-02  2.37593957E-01  8.15853851E-01
  1.00000000E+00  1.00000000E+00  1.00000000E+00  0.00000000E+00  0.00000000E+00
  0.00000000E+00  0.00000000E+00  0.00000000E+00  0.00000000E+00  0.00000000E+00
  4.02486927E-02  2.37593957E-01  8.15853851E-01  1.00000000E+00  1.00000000E+00
  1.00000000E+00  0.00000000E+00  0.00000000E+00  0.00000000E+00  0.00000000E+00
  0.00000000E+00  0.00000000E+00  0.00000000E+00  0.00000000E+00  0.00000000E+00
  0.00000000E+00  0.00000000E+00  0.00000000E+00  0.00000000E+00  0.00000000E+00
  0.00000000E+00  0.00000000E+00  0.00000000E+00  0.00000000E+00  0.00000000E+00
  0.00000000E+00  0.00000000E+00  0.00000000E+00  0.00000000E+00  0.00000000E+00
  0.00000000E+00  0.00000000E+00  0.00000000E+00  0.00000000E+00  0.00000000E+00
  0.00000000E+00  0.00000000E+00  0.00000000E+00  0.00000000E+00  0.00000000E+00
  0.00000000E+00  0.00000000E+00  0.00000000E+00  0.00000000E+00  0.00000000E+00
  0.00000000E+00  0.00000000E+00  0.00000000E+00  0.00000000E+00  0.00000000E+00
  0.00000000E+00  0.00000000E+00  0.00000000E+00  0.00000000E+00  0.00000000E+00
  0.00000000E+00  0.00000000E+00  0.00000000E+00  0.00000000E+00  0.00000000E+00
  0.00000000E+00  0.00000000E+00  0.00000000E+00  0.00000000E+00  0.00000000E+00
  0.00000000E+00  0.00000000E+00  0.00000000E+00  0.00000000E+00  1.00000000E+00
  0.00000000E+00  0.00000000E+00  0.00000000E+00  0.00000000E+00  0.00000000E+00
  0.00000000E+00  0.00000000E+00  0.00000000E+00  0.00000000E+00  0.00000000E+00
  0.00000000E+00
Coordinates of each shell                  R   N=         216
  8.68229732E-01  3.32764262E+00  8.78611425E-02  8.68229732E-01  3.32764262E+00
  8.78611425E-02  8.68229732E-01  3.32764262E+00  8.78611425E-02  8.68229732E-01
  3.32764262E+00  8.78611425E-02  8.68229732E-01  3.32764262E+00  8.78611425E-02
  8.68229732E-01  3.32764262E+00  8.78611425E-02  2.28052731E-02  6.72244064E-01
 -6.29845972E-01  2.28052731E-02  6.72244064E-01 -6.29845972E-01  2.28052731E-02
  6.72244064E-01 -6.29845972E-01  2.28052731E-02  6.72244064E-01 -6.29845972E-01
  2.28052731E-02  6.72244064E-01 -6.29845972E-01  2.28052731E-02  6.72244064E-01
 -6.29845972E-01 -2.26208101E+00 -1.88070085E-01  7.86751891E-01 -2.26208101E+00
 -1.88070085E-01  7.86751891E-01 -2.26208101E+00 -1.88070085E-01  7.86751891E-01
 -2.26208101E+00 -1.88070085E-01  7.86751891E-01 -2.26208101E+00 -1.88070085E-01
  7.86751891E-01 -2.26208101E+00 -1.88070085E-01  7.86751891E-01 -4.40439188E+00
 -9.52528293E-01 -2.83465549E-01 -4.40439188E+00 -9.52528293E-01 -2.83465549E-01
 -4.40439188E+00 -9.52528293E-01 -2.83465549E-01 -4.40439188E+00 -9.52528293E-01
 -2.83465549E-01 -4.40439188E+00 -9.52528293E-01 -2.83465549E-01 -4.40439188E+00
 -9.52528293E-01 -2.83465549E-01 -4.62444240E+00 -1.04310158E+00 -2.32161868E+00
 -4.62444240E+00 -1.04310158E+00 -2.32161868E+00 -4.62444240E+00 -1.04310158E+00
 -2.32161868E+00 -4.62444240E+00 -1.04310158E+00 -2.32161868E+00 -4.62444240E+00
 -1.04310158E+00 -2.32161868E+00  2.78823599E+00  3.72648196E+00 -6.50775599E-01
  2.78823599E+00  3.72648196E+00 -6.50775599E-01  2.78823599E+00  3.72648196E+00
 -6.50775599E-01  2.78823599E+00  3.72648196E+00 -6.50775599E-01  2.78823599E+00
  3.72648196E+00 -6.50775599E-01 -6.01525532E+00 -1.51901688E+00  8.48275333E-01
 -6.01525532E+00 -1.51901688E+00  8.48275333E-01 -6.01525532E+00 -1.51901688E+00
  8.48275333E-01 -6.01525532E+00 -1.51901688E+00  8.48275333E-01 -6.01525532E+00
 -1.51901688E+00  8.48275333E-01 -2.09022114E+00 -1.37081747E-01  2.83434253E+00
 -2.09022114E+00 -1.37081747E-01  2.83434253E+00 -2.09022114E+00 -1.37081747E-01
  2.83434253E+00 -2.09022114E+00 -1.37081747E-01  2.83434253E+00 -2.09022114E+00
 -1.37081747E-01  2.83434253E+00 -2.59419801E-01  5.06318226E-01 -2.66238884E+00
 -2.59419801E-01  5.06318226E-01 -2.66238884E+00 -2.59419801E-01  5.06318226E-01
 -2.66238884E+00 -2.59419801E-01  5.06318226E-01 -2.66238884E+00 -2.59419801E-01
  5.06318226E-01 -2.66238884E+00  8.78746726E-01  3.56437231E+00  2.17547602E+00
  8.78746726E-01  3.56437231E+00  2.17547602E+00  8.78746726E-01  3.56437231E+00
  2.17547602E+00  8.78746726E-01  3.56437231E+00  2.17547602E+00  8.78746726E-01
  3.56437231E+00  2.17547602E+00 -4.85261751E-01  4.70551310E+00 -7.40323829E-01
 -4.85261751E-01  4.70551310E+00 -7.40323829E-01 -4.85261751E-01  4.70551310E+00
 -7.40323829E-01 -4.85261751E-01  4.70551310E+00 -7.40323829E-01 -4.85261751E-01
  4.70551310E+00 -7.40323829E-01  2.61530853E+00 -1.58583619E+00  4.40708232E-02
  2.61530853E+00 -1.58583619E+00  4.40708232E-02  2.61530853E+00 -1.58583619E+00
  4.40708232E-02  2.61530853E+00 -1.58583619E+00  4.40708232E-02  2.61530853E+00
 -1.58583619E+00  4.40708232E-02  2.61530853E+00 -1.58583619E+00  4.40708232E-02
  2.61530853E+00 -1.58583619E+00  4.40708232E-02  2.61530853E+00 -1.58583619E+00
  4.40708232E-02  2.61530853E+00 -1.58583619E+00  4.40708232E-02  2.61530853E+00
 -1.58583619E+00  4.40708232E-02  2.61530853E+00 -1.58583619E+00  4.40708232E-02
  2.61530853E+00 -1.58583619E+00  4.40708232E-02  2.61530853E+00 -1.58583619E+00
  4.40708232E-02
Constraint Structure                       R   N=          36
  8.68229732E-01  3.32764262E+00  8.78611425E-02  2.28052731E-02  6.72244064E-01
 -6.29845972E-01 -2.26208101E+00 -1.88070085E-01  7.86751891E-01 -4.40439188E+00
 -9.52528293E-01 -2.83465549E-01 -4.62444240E+00 -1.04310158E+00 -2.32161868E+00
  2.78823599E+00  3.72648196E+00 -6.50775599E-01 -6.01525532E+00 -1.51901688E+00
  8.48275333E-01 -2.09022114E+00 -1.37081747E-01  2.83434253E+00 -2.59419801E-01
  5.06318226E-01 -2.66238884E+00  8.78746726E-01  3.56437231E+00  2.17547602E+00
 -4.85261751E-01  4.70551310E+00 -7.40323829E-01  2.61530853E+00 -1.58583619E+00
  4.40708232E-02
Num ILSW                                   I              100
ILSW                                       I   N=         100
           0           0           0           0           2           0
           0           0           0           0         402          -1
           5           0           0           0           0           0
           0           0           0           0           0           0
           1           0           0           0           0           0
           0           0      100000           0          -1           0
           0           0           0           0           0           0
           0           0           0           1           0           0
           0           0           1           0           0           0
           0           0           4          41           0           0
           0           0           5           0           0           0
           0           0           0           0           0           0
           0           0           0           0           0           0
           0           0           0           0           0           0
           0           0           0           0           0           0
           0           0           0           0           0           0
           0           0           0           0
Num RLSW                                   I               41
RLSW                                       R   N=          41
  8.00000000E-01  7.20000000E-01  1.00000000E+00  8.10000000E-01  2.00000000E-01
  0.00000000E+00  0.00000000E+00  1.00000000E+00  0.00000000E+00  0.00000000E+00
  0.00000000E+00  0.00000000E+00  1.00000000E+00  0.00000000E+00  0.00000000E+00
  0.00000000E+00  0.00000000E+00  1.00000000E+00  0.00000000E+00  0.00000000E+00
  0.00000000E+00  0.00000000E+00  1.00000000E+00  0.00000000E+00  0.00000000E+00
  0.00000000E+00  0.00000000E+00  1.00000000E+00  0.00000000E+00  0.00000000E+00
  0.00000000E+00  0.00000000E+00  0.00000000E+00  0.00000000E+00  0.00000000E+00
  0.00000000E+00  0.00000000E+00  0.00000000E+00  1.00000000E+00  1.00000000E+00
  0.00000000E+00
MxBond                                     I                4
NBond                                      I   N=          12
           4           4           3           3           1           1
           1           1           1           1           1           1
IBond                                      I   N=          48
           2           6          10          11           1           3
           9          12           2           4           8           0
           3           5           7           0           4           0
           0           0           1           0           0           0
           4           0           0           0           3           0
           0           0           2           0           0           0
           1           0           0           0           1           0
           0           0           2           0           0           0
RBond                                      R   N=          48
  1.00000000E+00  1.00000000E+00  1.00000000E+00  1.00000000E+00  1.00000000E+00
  1.00000000E+00  1.00000000E+00  1.00000000E+00  1.00000000E+00  2.00000000E+00
  1.00000000E+00  0.00000000E+00  2.00000000E+00  1.00000000E+00  1.00000000E+00
  0.00000000E+00  1.00000000E+00  0.00000000E+00  0.00000000E+00  0.00000000E+00
  1.00000000E+00  0.00000000E+00  0.00000000E+00  0.00000000E+00  1.00000000E+00
  0.00000000E+00  0.00000000E+00  0.00000000E+00  1.00000000E+00  0.00000000E+00
  0.00000000E+00  0.00000000E+00  1.00000000E+00  0.00000000E+00  0.00000000E+00
  0.00000000E+00  1.00000000E+00  0.00000000E+00  0.00000000E+00  0.00000000E+00
  1.00000000E+00  0.00000000E+00  0.00000000E+00  0.00000000E+00  1.00000000E+00
  0.00000000E+00  0.00000000E+00  0.00000000E+00
Virial Ratio                               R      2.003164063484426E+00
SCF Energy                                 R     -6.168945953513659E+02
Total Energy                               R     -6.168945953513659E+02
RMS Density                                R      8.325984229564250E-12
Nuclear derivative order                   I                0
External E-field                           R   N=          35
  0.00000000E+00  0.00000000E+00  0.00000000E+00  0.00000000E+00  0.00000000E+00
  0.00000000E+00  0.00000000E+00  0.00000000E+00  0.00000000E+00  0.00000000E+00
  0.00000000E+00  0.00000000E+00  0.00000000E+00  0.00000000E+00  0.00000000E+00
  0.00000000E+00  0.00000000E+00  0.00000000E+00  0.00000000E+00  0.00000000E+00
  0.00000000E+00  0.00000000E+00  0.00000000E+00  0.00000000E+00  0.00000000E+00
  0.00000000E+00  0.00000000E+00  0.00000000E+00  0.00000000E+00  0.00000000E+00
  0.00000000E+00  0.00000000E+00  0.00000000E+00  0.00000000E+00  0.00000000E+00
IOpCl                                      I                0
IROHF                                      I                0
Alpha Orbital Energies                     R   N=         167
 -1.01534250E+02 -1.02479300E+01 -1.01939172E+01 -1.01871514E+01 -1.01837741E+01
 -9.44869887E+00 -7.21303719E+00 -7.20360946E+00 -7.20345537E+00 -8.67660613E-01
 -7.86712051E-01 -7.40782122E-01 -6.38210770E-01 -5.77709207E-01 -4.84855651E-01
 -4.75870327E-01 -4.43915190E-01 -4.15977842E-01 -4.00842937E-01 -3.75248021E-01
 -3.65868188E-01 -3.06442658E-01 -2.98854936E-01 -2.79993805E-01 -3.29778058E-02
 -8.04350908E-03  5.99024075E-03  6.95559269E-03  2.25916767E-02  2.83478549E-02
  3.80941459E-02  4.14925560E-02  5.96801914E-02  6.67026877E-02  7.31510035E-02
  8.13195083E-02  8.68055245E-02  9.79958632E-02  1.09100893E-01  1.15254743E-01
  1.17889631E-01  1.23283332E-01  1.28538713E-01  1.29125831E-01  1.32770889E-01
  1.42784833E-01  1.50025843E-01  1.58014027E-01  1.59952683E-01  1.64767179E-01
  1.71707207E-01  1.86144682E-01  1.92231557E-01  2.12155578E-01  2.20759208E-01
  2.27054846E-01  2.46026149E-01  2.62357498E-01  2.71955837E-01  2.92128025E-01
  3.27797293E-01  3.54127996E-01  3.90709862E-01  4.26070127E-01  4.28910763E-01
  4.44027323E-01  4.56538562E-01  4.80170223E-01  4.86511998E-01  4.95332853E-01
  5.24128930E-01  5.27743175E-01  5.68088872E-01  5.85089689E-01  5.96486777E-01
  6.25101082E-01  6.38155161E-01  6.40575588E-01  6.58518637E-01  6.60731064E-01
  6.87045657E-01  7.02446730E-01  7.27039485E-01  7.34722291E-01  7.81305790E-01
  8.17020047E-01  8.32484817E-01  8.68197766E-01  8.91376498E-01  9.09900814E-01
  9.46747759E-01  9.66014327E-01  1.00924906E+00  1.02738754E+00  1.06681011E+00
  1.08967214E+00  1.12560008E+00  1.16973274E+00  1.19424034E+00  1.27743977E+00
  1.39769351E+00  1.43107096E+00  1.44556620E+00  1.46752088E+00  1.50045363E+00
  1.53861837E+00  1.54943894E+00  1.57418566E+00  1.59681505E+00  1.62653512E+00
  1.66613354E+00  1.68932545E+00  1.71575582E+00  1.72053731E+00  1.75316803E+00
  1.78992545E+00  1.87218338E+00  1.88596285E+00  1.93604245E+00  1.97350740E+00
  2.01915407E+00  2.05963586E+00  2.11571518E+00  2.17424561E+00  2.19010775E+00
  2.20448478E+00  2.24645378E+00  2.29295920E+00  2.30737738E+00  2.34966581E+00
  2.35712289E+00  2.42782590E+00  2.45378225E+00  2.49178529E+00  2.52422266E+00
  2.54347615E+00  2.57517227E+00  2.58708808E+00  2.59504555E+00  2.64228046E+00
  2.72895458E+00  2.73329167E+00  2.75784751E+00  2.77276131E+00  2.85285958E+00
  2.87005075E+00  2.93392027E+00  3.08281762E+00  3.08633654E+00  3.17908153E+00
  3.39782890E+00  3.50844783E+00  3.71616116E+00  3.75886289E+00  3.76215930E+00
  3.95056609E+00  4.09961288E+00  4.28618342E+00  9.75535732E+00  2.37215095E+01
  2.37915155E+01  2.39002438E+01  2.42570365E+01  2.59381421E+01  2.59703665E+01
  2.64477871E+01  2.15745454E+02
Alpha MO coefficients                      R   N=       27889
  1.38907609E-07 -3.15966138E-07 -1.97406920E-06 -2.35606017E-06 -2.63793284E-06
  3.76158723E-06  1.25673901E-05  1.44062638E-05  1.73039316E-05 -3.40498648E-05
  2.52731216E-05  3.38113303E-05  1.72811360E-05 -1.86073391E-03 -9.68379881E-05
  5.47455796E-04 -1.25843351E-04  5.56653610E-06 -3.81875470E-06 -1.78844213E-06
  1.31606644E-05 -6.25122079E-07  1.46625135E-06 -3.04530495E-06  1.15635842E-05
 -1.23033766E-05  5.58504216E-06 -1.55987362E-05 -1.20722865E-05  2.04548858E-05
 -2.01974682E-05  1.74296384E-04  1.36419930E-04 -1.12473804E-04 -8.27994844E-06
  3.91045080E-03 -5.68823126E-04  4.32222895E-04  9.64076460E-04  9.02579618E-06
 -7.34565675E-07  3.53210995E-06 -2.79173859E-06  8.22566217E-06 -6.18775412E-07
  1.80381541E-06  3.68615700E-06 -1.95849170E-06 -4.14816007E-06 -9.65883910E-06
 -2.30453180E-05  7.91224429E-06  2.53896135E-05  2.94723871E-05  2.48230303E-05
 -2.96124644E-06 -5.60578246E-05 -1.23608448E-03 -1.31188546E-03 -3.96912382E-04
 -1.91819217E-05  6.51082893E-06  5.45184218E-06 -6.14435034E-06  1.84420108E-06
 -4.60956129E-06  3.07417911E-07 -9.14752523E-07 -1.85796347E-06  5.72891767E-07
  5.25964714E-07  9.30632613E-06  8.97705115E-06 -2.09092708E-06  2.13024120E-06
 -4.48226011E-05 -7.88193663E-05 -1.98395447E-05  6.03583390E-05 -1.71979440E-03
 -3.35195911E-04 -1.90024971E-04 -1.73787072E-04 -4.94508272E-06 -1.87041177E-06
 -3.42166263E-06 -1.57614882E-06 -1.87888667E-06 -3.19396461E-06  3.48919595E-05
  4.97662990E-05 -4.70357061E-06  6.63576354E-06 -9.40064520E-08  6.17927786E-06
  9.09322796E-06 -6.57943683E-05  8.31992837E-05  1.57049963E-04  6.55513534E-06
  9.40267062E-06 -6.42086640E-06  2.05407538E-06 -1.99086464E-05 -4.83765759E-05
 -1.00343286E-04 -6.95327488E-07 -2.91692163E-07  1.21179881E-06  6.16128852E-06
 -3.89366764E-05  5.32570350E-05  7.21130613E-05 -1.17125879E-05  1.77535330E-06
  1.42465293E-05 -8.00032710E-07 -6.41244714E-05 -9.68863332E-05  2.19666900E-04
 -6.59266132E-06  2.23454517E-06 -1.58138163E-05  1.26361107E-05 -6.53302913E-05
  6.10888252E-05  2.22941651E-04 -6.23759272E-06  1.18959013E-05  1.27448509E-05
 -7.70196113E-06  3.95610275E-05 -1.17363148E-04 -3.20775600E-04  1.45162859E-06
 -5.53152424E-06 -1.08700832E-06  4.11609634E-01  6.54076192E-01  1.50039198E-02