(R)-3-chloro-1-butene tau=120                                           
SP        RB3LYP                                                      6-311++G(d,p)       
Number of atoms                            I               12
Info1-9                                    I   N=           9
          26          26           0           0           0         110
           1          18        -502
Full Title                                 C   N=           3
(R)-3-chloro-1-butene tau=120       
Route                                      C   N=           7
#P B3LYP/6-311++G** scf(conver=11) int=ultrafine polar=optro
t cphf(rdfreq,conver=11)
Charge                                     I                0
Multiplicity                               I                1
Number of electrons                        I               48
Number of alpha electrons                  I               24
Number of beta electrons                   I               24
Number of basis functions                  I              167
Number of independent functions            I              167
Number of point charges in /Mol/           I                0
Number of translation vectors              I                0
Atomic numbers                             I   N=          12
           6           6           6           6           1           1
           1           1           1           1           1          17
Nuclear charges                            R   N=          12
  6.00000000E+00  6.00000000E+00  6.00000000E+00  6.00000000E+00  1.00000000E+00
  1.00000000E+00  1.00000000E+00  1.00000000E+00  1.00000000E+00  1.00000000E+00
  1.00000000E+00  1.70000000E+01
Current cartesian coordinates              R   N=          36
  8.30898191E-01  3.29204223E+00  8.47273662E-02 -2.96793840E-02  6.82476089E-01
 -5.79261936E-01 -2.25182958E+00 -1.98452776E-01  7.81510497E-01 -4.37362748E+00
 -9.76896393E-01 -2.97075844E-01 -4.66659905E+00 -1.11330266E+00 -2.32467910E+00
  2.51893495E+00  3.70599602E+00 -1.03278374E+00 -5.93841736E+00 -1.51383490E+00
  9.16543165E-01 -2.13560938E+00 -1.31435451E-01  2.83123755E+00 -3.19452049E-01
  5.43579959E-01 -2.61252908E+00  1.28469372E+00  3.52679635E+00  2.08591192E+00
 -6.36474208E-01  4.65272866E+00 -4.41768706E-01  2.63755017E+00 -1.55679664E+00
  3.75686761E-02
Number of symbols in /Mol/                 I                0
Force Field                                I                0
Atom Types                                 C   N=          12
                                                            
                                                            
                        
Int Atom Types                             I   N=          12
           0           0           0           0           0           0
           0           0           0           0           0           0
MM charges                                 R   N=          12
  0.00000000E+00  0.00000000E+00  0.00000000E+00  0.00000000E+00  0.00000000E+00
  0.00000000E+00  0.00000000E+00  0.00000000E+00  0.00000000E+00  0.00000000E+00
  0.00000000E+00  0.00000000E+00
Integer atomic weights                     I   N=          12
          12          12          12          12           1           1
           1           1           1           1           1          35
Real atomic weights                        R   N=          12
  1.20000000E+01  1.20000000E+01  1.20000000E+01  1.20000000E+01  1.00782504E+00
  1.00782504E+00  1.00782504E+00  1.00782504E+00  1.00782504E+00  1.00782504E+00
  1.00782504E+00  3.49688527E+01
Atom fragment info                         I   N=          12
           0           0           0           0           0           0
           0           0           0           0           0           0
Atom residue num                           I   N=          12
           0           0           0           0           0           0
           0           0           0           0           0           0
Nuclear spins                              I   N=          12
           0           0           0           0           1           1
           1           1           1           1           1           3
Nuclear ZEff                               R   N=          12
 -3.60000000E+00 -3.60000000E+00 -3.60000000E+00 -3.60000000E+00 -1.00000000E+00
 -1.00000000E+00 -1.00000000E+00 -1.00000000E+00 -1.00000000E+00 -1.00000000E+00
 -1.00000000E+00 -1.42400000E+01
Nuclear ZNuc                               R   N=          12
  6.00000000E+00  6.00000000E+00  6.00000000E+00  6.00000000E+00  1.00000000E+00
  1.00000000E+00  1.00000000E+00  1.00000000E+00  1.00000000E+00  1.00000000E+00
  1.00000000E+00  1.70000000E+01
Nuclear QMom                               R   N=          12
  0.00000000E+00  0.00000000E+00  0.00000000E+00  0.00000000E+00  0.00000000E+00
  0.00000000E+00  0.00000000E+00  0.00000000E+00  0.00000000E+00  0.00000000E+00
  0.00000000E+00 -8.16500000E+00
Nuclear GFac                               R   N=          12
  0.00000000E+00  0.00000000E+00  0.00000000E+00  0.00000000E+00  2.79284600E+00
  2.79284600E+00  2.79284600E+00  2.79284600E+00  2.79284600E+00  2.79284600E+00
  2.79284600E+00  8.21874000E-01
MicOpt                                     I   N=          12
          -1          -1          -1          -1          -1          -1
          -1          -1          -1          -1          -1          -1
Number of residues                         I                0
Number of secondary structures             I                0
SymInf integers                            I   N=          26
           1           1           1           1           1           0
           0           0           0           0           0           0
           0           0           0           0           0           0
           0           0           0           0           0           0
           0           0
RotTr to input orientation                 R   N=          12
  9.99946156E-01 -1.01942537E-02  1.93979415E-03  1.01958580E-02  9.99947686E-01
 -8.18985084E-04 -1.93134373E-03  8.38718852E-04  9.99997783E-01 -4.02952602E-05
 -1.68225783E-04 -2.63526246E-04
Number of contracted shells                I               72
Number of primitive shells                 I              126
Pure/Cartesian d shells                    I                0
Pure/Cartesian f shells                    I                0
Highest angular momentum                   I                2
Largest degree of contraction              I                6
Shell types                                I   N=          72
           0          -1          -1          -1          -1          -2
           0          -1          -1          -1          -1          -2
           0          -1          -1          -1          -1          -2
           0          -1          -1          -1          -1          -2
           0           0           0           0           1           0
           0           0           0           1           0           0
           0           0           1           0           0           0
           0           1           0           0           0           0
           1           0           0           0           0           1
           0           0           0           0           1           0
           0           0           0           0           0          -1
           1           1           1           1           1          -2
Number of primitives per shell             I   N=          72
           6           3           1           1           1           1
           6           3           1           1           1           1
           6           3           1           1           1           1
           6           3           1           1           1           1
           3           1           1           1           1           3
           1           1           1           1           3           1
           1           1           1           3           1           1
           1           1           3           1           1           1
           1           3           1           1           1           1
           3           1           1           1           1           6
           3           1           1           1           1           1
           5           2           1           1           1           1
Shell to atom map                          I   N=          72
           1           1           1           1           1           1
           2           2           2           2           2           2
           3           3           3           3           3           3
           4           4           4           4           4           4
           5           5           5           5           5           6
           6           6           6           6           7           7
           7           7           7           8           8           8
           8           8           9           9           9           9
           9          10          10          10          10          10
          11          11          11          11          11          12
          12          12          12          12          12          12
          12          12          12          12          12          12
Primitive exponents                        R   N=         126
  4.56324000E+03  6.82024000E+02  1.54973000E+02  4.44553000E+01  1.30290000E+01
  1.82773000E+00  2.09642000E+01  4.80331000E+00  1.45933000E+00  4.83456000E-01
  1.45585000E-01  4.38000000E-02  6.26000000E-01  4.56324000E+03  6.82024000E+02
  1.54973000E+02  4.44553000E+01  1.30290000E+01  1.82773000E+00  2.09642000E+01
  4.80331000E+00  1.45933000E+00  4.83456000E-01  1.45585000E-01  4.38000000E-02
  6.26000000E-01  4.56324000E+03  6.82024000E+02  1.54973000E+02  4.44553000E+01
  1.30290000E+01  1.82773000E+00  2.09642000E+01  4.80331000E+00  1.45933000E+00
  4.83456000E-01  1.45585000E-01  4.38000000E-02  6.26000000E-01  4.56324000E+03
  6.82024000E+02  1.54973000E+02  4.44553000E+01  1.30290000E+01  1.82773000E+00
  2.09642000E+01  4.80331000E+00  1.45933000E+00  4.83456000E-01  1.45585000E-01
  4.38000000E-02  6.26000000E-01  3.38650000E+01  5.09479000E+00  1.15879000E+00
  3.25840000E-01  1.02741000E-01  3.60000000E-02  7.50000000E-01  3.38650000E+01
  5.09479000E+00  1.15879000E+00  3.25840000E-01  1.02741000E-01  3.60000000E-02
  7.50000000E-01  3.38650000E+01  5.09479000E+00  1.15879000E+00  3.25840000E-01
  1.02741000E-01  3.60000000E-02  7.50000000E-01  3.38650000E+01  5.09479000E+00
  1.15879000E+00  3.25840000E-01  1.02741000E-01  3.60000000E-02  7.50000000E-01
  3.38650000E+01  5.09479000E+00  1.15879000E+00  3.25840000E-01  1.02741000E-01
  3.60000000E-02  7.50000000E-01  3.38650000E+01  5.09479000E+00  1.15879000E+00
  3.25840000E-01  1.02741000E-01  3.60000000E-02  7.50000000E-01  3.38650000E+01
  5.09479000E+00  1.15879000E+00  3.25840000E-01  1.02741000E-01  3.60000000E-02
  7.50000000E-01  1.05819000E+05  1.58720000E+04  3.61965000E+03  1.03080000E+03
  3.39908000E+02  1.24538000E+02  1.24538000E+02  4.95135000E+01  2.08056000E+01
  6.58346000E+00  2.56468000E+00  5.59763000E-01  1.83273000E-01  4.83000000E-02
  5.89776000E+02  1.39849000E+02  4.51413000E+01  1.68733000E+01  2.77152000E+00
  6.74110000E+00  2.77152000E+00  1.02387000E+00  3.81368000E-01  1.09437000E-01
  7.50000000E-01
Contraction coefficients                   R   N=         126
  1.96665025E-03  1.52306019E-02  7.61269097E-02  2.60801033E-01  6.16462078E-01
  2.21006028E-01  1.14660081E-01  9.19999648E-01 -3.03068213E-03  1.00000000E+00
  1.00000000E+00  1.00000000E+00  1.00000000E+00  1.96665025E-03  1.52306019E-02
  7.61269097E-02  2.60801033E-01  6.16462078E-01  2.21006028E-01  1.14660081E-01
  9.19999648E-01 -3.03068213E-03  1.00000000E+00  1.00000000E+00  1.00000000E+00
  1.00000000E+00  1.96665025E-03  1.52306019E-02  7.61269097E-02  2.60801033E-01
  6.16462078E-01  2.21006028E-01  1.14660081E-01  9.19999648E-01 -3.03068213E-03
  1.00000000E+00  1.00000000E+00  1.00000000E+00  1.00000000E+00  1.96665025E-03
  1.52306019E-02  7.61269097E-02  2.60801033E-01  6.16462078E-01  2.21006028E-01
  1.14660081E-01  9.19999648E-01 -3.03068213E-03  1.00000000E+00  1.00000000E+00
  1.00000000E+00  1.00000000E+00  2.54938145E-02  1.90373109E-01  8.52161486E-01
  1.00000000E+00  1.00000000E+00  1.00000000E+00  1.00000000E+00  2.54938145E-02
  1.90373109E-01  8.52161486E-01  1.00000000E+00  1.00000000E+00  1.00000000E+00
  1.00000000E+00  2.54938145E-02  1.90373109E-01  8.52161486E-01  1.00000000E+00
  1.00000000E+00  1.00000000E+00  1.00000000E+00  2.54938145E-02  1.90373109E-01
  8.52161486E-01  1.00000000E+00  1.00000000E+00  1.00000000E+00  1.00000000E+00
  2.54938145E-02  1.90373109E-01  8.52161486E-01  1.00000000E+00  1.00000000E+00
  1.00000000E+00  1.00000000E+00  2.54938145E-02  1.90373109E-01  8.52161486E-01
  1.00000000E+00  1.00000000E+00  1.00000000E+00  1.00000000E+00  2.54938145E-02
  1.90373109E-01  8.52161486E-01  1.00000000E+00  1.00000000E+00  1.00000000E+00
  1.00000000E+00  7.38000247E-04  5.71800191E-03  2.94950099E-02  1.17286039E-01
  3.62949121E-01  5.84149195E-01  1.34176973E-01  6.24249876E-01  2.91755942E-01
  1.00000000E+00  1.00000000E+00  1.00000000E+00  1.00000000E+00  1.00000000E+00
  3.66556935E-03  2.83679194E-02  1.24756603E-01  3.39654631E-01  7.47585963E-01
 -1.57224381E+00  9.92388882E-01  1.00000000E+00  1.00000000E+00  1.00000000E+00
  1.00000000E+00
P(S=P) Contraction coefficients            R   N=         126
  0.00000000E+00  0.00000000E+00  0.00000000E+00  0.00000000E+00  0.00000000E+00
  0.00000000E+00  4.02486927E-02  2.37593957E-01  8.15853851E-01  1.00000000E+00
  1.00000000E+00  1.00000000E+00  0.00000000E+00  0.00000000E+00  0.00000000E+00
  0.00000000E+00  0.00000000E+00  0.00000000E+00  0.00000000E+00  4.02486927E-02
  2.37593957E-01  8.15853851E-01  1.00000000E+00  1.00000000E+00  1.00000000E+00
  0.00000000E+00  0.00000000E+00  0.00000000E+00  0.00000000E+00  0.00000000E+00
  0.00000000E+00  0.00000000E+00  4.02486927E-02  2.37593957E-01  8.15853851E-01
  1.00000000E+00  1.00000000E+00  1.00000000E+00  0.00000000E+00  0.00000000E+00
  0.00000000E+00  0.00000000E+00  0.00000000E+00  0.00000000E+00  0.00000000E+00
  4.02486927E-02  2.37593957E-01  8.15853851E-01  1.00000000E+00  1.00000000E+00
  1.00000000E+00  0.00000000E+00  0.00000000E+00  0.00000000E+00  0.00000000E+00
  0.00000000E+00  0.00000000E+00  0.00000000E+00  0.00000000E+00  0.00000000E+00
  0.00000000E+00  0.00000000E+00  0.00000000E+00  0.00000000E+00  0.00000000E+00
  0.00000000E+00  0.00000000E+00  0.00000000E+00  0.00000000E+00  0.00000000E+00
  0.00000000E+00  0.00000000E+00  0.00000000E+00  0.00000000E+00  0.00000000E+00
  0.00000000E+00  0.00000000E+00  0.00000000E+00  0.00000000E+00  0.00000000E+00
  0.00000000E+00  0.00000000E+00  0.00000000E+00  0.00000000E+00  0.00000000E+00
  0.00000000E+00  0.00000000E+00  0.00000000E+00  0.00000000E+00  0.00000000E+00
  0.00000000E+00  0.00000000E+00  0.00000000E+00  0.00000000E+00  0.00000000E+00
  0.00000000E+00  0.00000000E+00  0.00000000E+00  0.00000000E+00  0.00000000E+00
  0.00000000E+00  0.00000000E+00  0.00000000E+00  0.00000000E+00  0.00000000E+00
  0.00000000E+00  0.00000000E+00  0.00000000E+00  0.00000000E+00  0.00000000E+00
  0.00000000E+00  0.00000000E+00  0.00000000E+00  0.00000000E+00  1.00000000E+00
  0.00000000E+00  0.00000000E+00  0.00000000E+00  0.00000000E+00  0.00000000E+00
  0.00000000E+00  0.00000000E+00  0.00000000E+00  0.00000000E+00  0.00000000E+00
  0.00000000E+00
Coordinates of each shell                  R   N=         216
  8.30898191E-01  3.29204223E+00  8.47273662E-02  8.30898191E-01  3.29204223E+00
  8.47273662E-02  8.30898191E-01  3.29204223E+00  8.47273662E-02  8.30898191E-01
  3.29204223E+00  8.47273662E-02  8.30898191E-01  3.29204223E+00  8.47273662E-02
  8.30898191E-01  3.29204223E+00  8.47273662E-02 -2.96793840E-02  6.82476089E-01
 -5.79261936E-01 -2.96793840E-02  6.82476089E-01 -5.79261936E-01 -2.96793840E-02
  6.82476089E-01 -5.79261936E-01 -2.96793840E-02  6.82476089E-01 -5.79261936E-01
 -2.96793840E-02  6.82476089E-01 -5.79261936E-01 -2.96793840E-02  6.82476089E-01
 -5.79261936E-01 -2.25182958E+00 -1.98452776E-01  7.81510497E-01 -2.25182958E+00
 -1.98452776E-01  7.81510497E-01 -2.25182958E+00 -1.98452776E-01  7.81510497E-01
 -2.25182958E+00 -1.98452776E-01  7.81510497E-01 -2.25182958E+00 -1.98452776E-01
  7.81510497E-01 -2.25182958E+00 -1.98452776E-01  7.81510497E-01 -4.37362748E+00
 -9.76896393E-01 -2.97075844E-01 -4.37362748E+00 -9.76896393E-01 -2.97075844E-01
 -4.37362748E+00 -9.76896393E-01 -2.97075844E-01 -4.37362748E+00 -9.76896393E-01
 -2.97075844E-01 -4.37362748E+00 -9.76896393E-01 -2.97075844E-01 -4.37362748E+00
 -9.76896393E-01 -2.97075844E-01 -4.66659905E+00 -1.11330266E+00 -2.32467910E+00
 -4.66659905E+00 -1.11330266E+00 -2.32467910E+00 -4.66659905E+00 -1.11330266E+00
 -2.32467910E+00 -4.66659905E+00 -1.11330266E+00 -2.32467910E+00 -4.66659905E+00
 -1.11330266E+00 -2.32467910E+00  2.51893495E+00  3.70599602E+00 -1.03278374E+00
  2.51893495E+00  3.70599602E+00 -1.03278374E+00  2.51893495E+00  3.70599602E+00
 -1.03278374E+00  2.51893495E+00  3.70599602E+00 -1.03278374E+00  2.51893495E+00
  3.70599602E+00 -1.03278374E+00 -5.93841736E+00 -1.51383490E+00  9.16543165E-01
 -5.93841736E+00 -1.51383490E+00  9.16543165E-01 -5.93841736E+00 -1.51383490E+00
  9.16543165E-01 -5.93841736E+00 -1.51383490E+00  9.16543165E-01 -5.93841736E+00
 -1.51383490E+00  9.16543165E-01 -2.13560938E+00 -1.31435451E-01  2.83123755E+00
 -2.13560938E+00 -1.31435451E-01  2.83123755E+00 -2.13560938E+00 -1.31435451E-01
  2.83123755E+00 -2.13560938E+00 -1.31435451E-01  2.83123755E+00 -2.13560938E+00
 -1.31435451E-01  2.83123755E+00 -3.19452049E-01  5.43579959E-01 -2.61252908E+00
 -3.19452049E-01  5.43579959E-01 -2.61252908E+00 -3.19452049E-01  5.43579959E-01
 -2.61252908E+00 -3.19452049E-01  5.43579959E-01 -2.61252908E+00 -3.19452049E-01
  5.43579959E-01 -2.61252908E+00  1.28469372E+00  3.52679635E+00  2.08591192E+00
  1.28469372E+00  3.52679635E+00  2.08591192E+00  1.28469372E+00  3.52679635E+00
  2.08591192E+00  1.28469372E+00  3.52679635E+00  2.08591192E+00  1.28469372E+00
  3.52679635E+00  2.08591192E+00 -6.36474208E-01  4.65272866E+00 -4.41768706E-01
 -6.36474208E-01  4.65272866E+00 -4.41768706E-01 -6.36474208E-01  4.65272866E+00
 -4.41768706E-01 -6.36474208E-01  4.65272866E+00 -4.41768706E-01 -6.36474208E-01
  4.65272866E+00 -4.41768706E-01  2.63755017E+00 -1.55679664E+00  3.75686761E-02
  2.63755017E+00 -1.55679664E+00  3.75686761E-02  2.63755017E+00 -1.55679664E+00
  3.75686761E-02  2.63755017E+00 -1.55679664E+00  3.75686761E-02  2.63755017E+00
 -1.55679664E+00  3.75686761E-02  2.63755017E+00 -1.55679664E+00  3.75686761E-02
  2.63755017E+00 -1.55679664E+00  3.75686761E-02  2.63755017E+00 -1.55679664E+00
  3.75686761E-02  2.63755017E+00 -1.55679664E+00  3.75686761E-02  2.63755017E+00
 -1.55679664E+00  3.75686761E-02  2.63755017E+00 -1.55679664E+00  3.75686761E-02
  2.63755017E+00 -1.55679664E+00  3.75686761E-02  2.63755017E+00 -1.55679664E+00
  3.75686761E-02
Constraint Structure                       R   N=          36
  8.30898191E-01  3.29204223E+00  8.47273662E-02 -2.96793840E-02  6.82476089E-01
 -5.79261936E-01 -2.25182958E+00 -1.98452776E-01  7.81510497E-01 -4.37362748E+00
 -9.76896393E-01 -2.97075844E-01 -4.66659905E+00 -1.11330266E+00 -2.32467910E+00
  2.51893495E+00  3.70599602E+00 -1.03278374E+00 -5.93841736E+00 -1.51383490E+00
  9.16543165E-01 -2.13560938E+00 -1.31435451E-01  2.83123755E+00 -3.19452049E-01
  5.43579959E-01 -2.61252908E+00  1.28469372E+00  3.52679635E+00  2.08591192E+00
 -6.36474208E-01  4.65272866E+00 -4.41768706E-01  2.63755017E+00 -1.55679664E+00
  3.75686761E-02
Num ILSW                                   I              100
ILSW                                       I   N=         100
           0           0           0           0           2           0
           0           0           0           0         402          -1
           5           0           0           0           0           0
           0           0           0           0           0           0
           1           0           0           0           0           0
           0           0      100000           0          -1           0
           0           0           0           0           0           0
           0           0           0           1           0           0
           0           0           1           0           0           0
           0           0           4          41           0           0
           0           0           5           0           0           0
           0           0           0           0           0           0
           0           0           0           0           0           0
           0           0           0           0           0           0
           0           0           0           0           0           0
           0           0           0           0           0           0
           0           0           0           0
Num RLSW                                   I               41
RLSW                                       R   N=          41
  8.00000000E-01  7.20000000E-01  1.00000000E+00  8.10000000E-01  2.00000000E-01
  0.00000000E+00  0.00000000E+00  1.00000000E+00  0.00000000E+00  0.00000000E+00
  0.00000000E+00  0.00000000E+00  1.00000000E+00  0.00000000E+00  0.00000000E+00
  0.00000000E+00  0.00000000E+00  1.00000000E+00  0.00000000E+00  0.00000000E+00
  0.00000000E+00  0.00000000E+00  1.00000000E+00  0.00000000E+00  0.00000000E+00
  0.00000000E+00  0.00000000E+00  1.00000000E+00  0.00000000E+00  0.00000000E+00
  0.00000000E+00  0.00000000E+00  0.00000000E+00  0.00000000E+00  0.00000000E+00
  0.00000000E+00  0.00000000E+00  0.00000000E+00  1.00000000E+00  1.00000000E+00
  0.00000000E+00
MxBond                                     I                4
NBond                                      I   N=          12
           4           4           3           3           1           1
           1           1           1           1           1           1
IBond                                      I   N=          48
           2           6          10          11           1           3
           9          12           2           4           8           0
           3           5           7           0           4           0
           0           0           1           0           0           0
           4           0           0           0           3           0
           0           0           2           0           0           0
           1           0           0           0           1           0
           0           0           2           0           0           0
RBond                                      R   N=          48
  1.00000000E+00  1.00000000E+00  1.00000000E+00  1.00000000E+00  1.00000000E+00
  1.00000000E+00  1.00000000E+00  1.00000000E+00  1.00000000E+00  2.00000000E+00
  1.00000000E+00  0.00000000E+00  2.00000000E+00  1.00000000E+00  1.00000000E+00
  0.00000000E+00  1.00000000E+00  0.00000000E+00  0.00000000E+00  0.00000000E+00
  1.00000000E+00  0.00000000E+00  0.00000000E+00  0.00000000E+00  1.00000000E+00
  0.00000000E+00  0.00000000E+00  0.00000000E+00  1.00000000E+00  0.00000000E+00
  0.00000000E+00  0.00000000E+00  1.00000000E+00  0.00000000E+00  0.00000000E+00
  0.00000000E+00  1.00000000E+00  0.00000000E+00  0.00000000E+00  0.00000000E+00
  1.00000000E+00  0.00000000E+00  0.00000000E+00  0.00000000E+00  1.00000000E+00
  0.00000000E+00  0.00000000E+00  0.00000000E+00
Virial Ratio                               R      2.002873104309630E+00
SCF Energy                                 R     -6.168936571405782E+02
Total Energy                               R     -6.168936571405782E+02
RMS Density                                R      5.725249077141961E-12
Nuclear derivative order                   I                0
External E-field                           R   N=          35
  0.00000000E+00  0.00000000E+00  0.00000000E+00  0.00000000E+00  0.00000000E+00
  0.00000000E+00  0.00000000E+00  0.00000000E+00  0.00000000E+00  0.00000000E+00
  0.00000000E+00  0.00000000E+00  0.00000000E+00  0.00000000E+00  0.00000000E+00
  0.00000000E+00  0.00000000E+00  0.00000000E+00  0.00000000E+00  0.00000000E+00
  0.00000000E+00  0.00000000E+00  0.00000000E+00  0.00000000E+00  0.00000000E+00
  0.00000000E+00  0.00000000E+00  0.00000000E+00  0.00000000E+00  0.00000000E+00
  0.00000000E+00  0.00000000E+00  0.00000000E+00  0.00000000E+00  0.00000000E+00
IOpCl                                      I                0
IROHF                                      I                0
Alpha Orbital Energies                     R   N=         167
 -1.01532516E+02 -1.02439638E+01 -1.01906699E+01 -1.01840274E+01 -1.01803842E+01
 -9.44682499E+00 -7.21112844E+00 -7.20178178E+00 -7.20161185E+00 -8.70429075E-01
 -7.88965383E-01 -7.46430301E-01 -6.43534759E-01 -5.77903302E-01 -4.86873607E-01
 -4.81545868E-01 -4.46910797E-01 -4.16959733E-01 -4.04524198E-01 -3.73253285E-01
 -3.65574081E-01 -3.06491097E-01 -2.98322121E-01 -2.80711622E-01 -3.62825369E-02
 -7.97312964E-03  6.24074595E-03  6.81636009E-03  2.24021558E-02  2.87585776E-02
  3.95505114E-02  3.96718411E-02  6.35792156E-02  6.58729465E-02  7.19424899E-02
  8.41430480E-02  8.75862730E-02  9.82441928E-02  1.11243871E-01  1.16414238E-01
  1.18628398E-01  1.21680649E-01  1.28277269E-01  1.30534835E-01  1.35433294E-01
  1.42314476E-01  1.50701352E-01  1.57997117E-01  1.59321385E-01  1.65852536E-01
  1.72094715E-01  1.88954004E-01  1.91383562E-01  2.17252782E-01  2.20904932E-01
  2.29204736E-01  2.47152842E-01  2.68787352E-01  2.72004194E-01  2.96871800E-01
  3.42133075E-01  3.57847211E-01  3.94090299E-01  4.26297627E-01  4.32727502E-01
  4.49769983E-01  4.57952065E-01  4.79315842E-01  4.88760749E-01  4.97759926E-01
  5.25794319E-01  5.27154763E-01  5.71015700E-01  5.90745391E-01  6.00511523E-01
  6.25875745E-01  6.31678138E-01  6.50224599E-01  6.56750041E-01  6.60885765E-01
  6.94691657E-01  7.08227375E-01  7.29712686E-01  7.41067405E-01  7.83168004E-01
  8.15555083E-01  8.33038974E-01  8.62185914E-01  8.88989197E-01  9.05523479E-01
  9.45452981E-01  9.61839480E-01  1.00598545E+00  1.03370091E+00  1.06399917E+00
  1.09358567E+00  1.12997451E+00  1.17057446E+00  1.20005555E+00  1.29649047E+00
  1.39830248E+00  1.43256576E+00  1.45006165E+00  1.46926834E+00  1.50823379E+00
  1.54382647E+00  1.55548734E+00  1.59226630E+00  1.60038974E+00  1.63320920E+00
  1.67578212E+00  1.69005432E+00  1.71009556E+00  1.73240961E+00  1.78585198E+00
  1.79144544E+00  1.88437009E+00  1.89910074E+00  1.93697371E+00  1.98155988E+00
  2.02169465E+00  2.07121198E+00  2.14072896E+00  2.18228131E+00  2.19801700E+00
  2.21851860E+00  2.25487595E+00  2.30039285E+00  2.30968616E+00  2.35659226E+00
  2.37789447E+00  2.46138130E+00  2.46845355E+00  2.50576732E+00  2.52640980E+00
  2.56588952E+00  2.58319186E+00  2.58993553E+00  2.61594543E+00  2.63616734E+00
  2.73268164E+00  2.74514582E+00  2.75729522E+00  2.79483773E+00  2.86459436E+00
  2.88335915E+00  2.93777715E+00  3.10004145E+00  3.12736279E+00  3.19503464E+00
  3.43454862E+00  3.52454321E+00  3.71261527E+00  3.79321342E+00  3.81026003E+00
  3.95140669E+00  4.13977136E+00  4.30941484E+00  9.75520729E+00  2.37221268E+01
  2.38572122E+01  2.39537916E+01  2.42799542E+01  2.59334711E+01  2.59752428E+01
  2.64449376E+01  2.15745159E+02
Alpha MO coefficients                      R   N=       27889
  1.06873706E-07 -1.90889555E-07 -2.64851660E-06 -1.72407869E-06 -1.35327469E-06
 -1.51894754E-06  1.95464872E-05  1.42459014E-05  9.61108168E-06  1.88016305E-05
  3.97854784E-05  2.52789278E-05  1.70236424E-05 -1.77391847E-03 -1.43569922E-04
  5.34992822E-04  2.56568035E-05  7.04141783E-06 -4.24558009E-06 -3.18699999E-06
  1.27223931E-05 -1.64257791E-07  1.57886600E-06 -3.39860296E-06  1.10703745E-05
 -1.06180100E-05  4.48826285E-06 -1.49077463E-05 -1.22477473E-05  1.70637877E-05
 -1.67002038E-05  1.53686311E-04  1.32716700E-04 -1.15513249E-04 -2.37941926E-05
  4.15479262E-03 -5.42938093E-04  4.38130932E-04  8.75046313E-04  8.15516188E-06
 -6.27269379E-07  2.16533865E-06 -2.71407987E-06  5.35017576E-06 -6.76553956E-07
  1.96183454E-06  3.59965174E-06 -2.77321196E-06 -4.31388420E-06 -1.08073167E-05
 -2.25993723E-05  1.06345220E-05  2.65574338E-05  3.09130454E-05  2.94190267E-05
 -3.36383812E-06 -5.79875809E-05 -1.42002321E-03 -1.29866721E-03 -4.41203374E-04
 -7.06006261E-05  6.59926603E-06  4.81619443E-06 -6.19825093E-06  1.42235576E-06
 -3.93718891E-06  2.89312666E-07 -8.59764491E-07 -1.80982947E-06  5.44927228E-07
  7.02904038E-07  9.11309391E-06  9.76924977E-06 -1.66394972E-06  1.52355589E-06
 -4.60799431E-05 -7.43050059E-05 -1.76507602E-05  6.48605778E-05 -1.70938678E-03
 -3.30659104E-04 -1.81570053E-04 -1.30651727E-04 -4.98659049E-06 -1.46660969E-06
 -3.55350569E-06 -1.49146822E-06 -1.59405175E-06 -3.08008034E-06  3.41592565E-05
  5.97278293E-05  4.25817116E-05  7.25465918E-06  2.09538119E-08  6.26208092E-06
  1.25572146E-05 -8.85975471E-05  7.99178191E-05  2.29229303E-04  8.12910297E-06
  1.29399742E-05 -1.10665451E-05  1.89475887E-06 -1.80420223E-05 -4.77783795E-05
 -1.27182687E-04  4.18087091E-08  1.94505983E-07  1.11564797E-06  6.21175054E-06
 -3.93483068E-05  6.37239062E-05  1.43833222E-04 -1.15351799E-05  1.61077938E-06
  1.41853616E-05 -6.89033235E-08 -6.42013891E-05 -1.24199792E-04  1.16403232E-04
 -7.60482831E-06  2.10517709E-06 -1.54632390E-05  1.05059839E-05 -6.37494475E-05
 -7.10452307E-06  8.53943061E-05 -4.79364319E-06  1.28709030E-05  1.49222286E-05
 -8.09225964E-06  4.11471136E-05 -1.38697963E-04 -3.18729912E-04  4.44788960E-07
 -5.29164431E-06 -6.03422524E-08  4.11609687E-01  6.54076326E-01  1.50032494E-02