 Entering Gaussian System, Link 0=g09
 Input=input.dat
 Output=output.dat
 Initial command:
 /cerebro/home/software/apps/g09/l1.exe /scratch/crawdad/Gau-31997.inp -scrdir=/scratch/crawdad/
 Entering Link 1 = /cerebro/home/software/apps/g09/l1.exe PID=     32002.
  
 Copyright (c) 1988,1990,1992,1993,1995,1998,2003,2009, Gaussian, Inc.
                  All Rights Reserved.
  
 This is part of the Gaussian(R) 09 program.  It is based on
 the Gaussian(R) 03 system (copyright 2003, Gaussian, Inc.),
 the Gaussian(R) 98 system (copyright 1998, Gaussian, Inc.),
 the Gaussian(R) 94 system (copyright 1995, Gaussian, Inc.),
 the Gaussian 92(TM) system (copyright 1992, Gaussian, Inc.),
 the Gaussian 90(TM) system (copyright 1990, Gaussian, Inc.),
 the Gaussian 88(TM) system (copyright 1988, Gaussian, Inc.),
 the Gaussian 86(TM) system (copyright 1986, Carnegie Mellon
 University), and the Gaussian 82(TM) system (copyright 1983,
 Carnegie Mellon University). Gaussian is a federally registered
 trademark of Gaussian, Inc.
  
 This software contains proprietary and confidential information,
 including trade secrets, belonging to Gaussian, Inc.
  
 This software is provided under written license and may be
 used, copied, transmitted, or stored only in accord with that
 written license.
  
 The following legend is applicable only to US Government
 contracts under FAR:
  
                    RESTRICTED RIGHTS LEGEND
  
 Use, reproduction and disclosure by the US Government is
 subject to restrictions as set forth in subparagraphs (a)
 and (c) of the Commercial Computer Software - Restricted
 Rights clause in FAR 52.227-19.
  
 Gaussian, Inc.
 340 Quinnipiac St., Bldg. 40, Wallingford CT 06492
  
  
 ---------------------------------------------------------------
 Warning -- This program may not be used in any manner that
 competes with the business of Gaussian, Inc. or will provide
 assistance to any competitor of Gaussian, Inc.  The licensee
 of this program is prohibited from giving any competitor of
 Gaussian, Inc. access to this program.  By using this program,
 the user acknowledges that Gaussian, Inc. is engaged in the
 business of creating and licensing software in the field of
 computational chemistry and represents and warrants to the
 licensee that it is not a competitor of Gaussian, Inc. and that
 it will not use this program in any manner prohibited above.
 ---------------------------------------------------------------
  

 Cite this work as:
 Gaussian 09, Revision A.02,
 M. J. Frisch, G. W. Trucks, H. B. Schlegel, G. E. Scuseria, 
 M. A. Robb, J. R. Cheeseman, G. Scalmani, V. Barone, B. Mennucci, 
 G. A. Petersson, H. Nakatsuji, M. Caricato, X. Li, H. P. Hratchian, 
 A. F. Izmaylov, J. Bloino, G. Zheng, J. L. Sonnenberg, M. Hada, 
 M. Ehara, K. Toyota, R. Fukuda, J. Hasegawa, M. Ishida, T. Nakajima, 
 Y. Honda, O. Kitao, H. Nakai, T. Vreven, J. A. Montgomery, Jr., 
 J. E. Peralta, F. Ogliaro, M. Bearpark, J. J. Heyd, E. Brothers, 
 K. N. Kudin, V. N. Staroverov, R. Kobayashi, J. Normand, 
 K. Raghavachari, A. Rendell, J. C. Burant, S. S. Iyengar, J. Tomasi, 
 M. Cossi, N. Rega, J. M. Millam, M. Klene, J. E. Knox, J. B. Cross, 
 V. Bakken, C. Adamo, J. Jaramillo, R. Gomperts, R. E. Stratmann, 
 O. Yazyev, A. J. Austin, R. Cammi, C. Pomelli, J. W. Ochterski, 
 R. L. Martin, K. Morokuma, V. G. Zakrzewski, G. A. Voth, 
 P. Salvador, J. J. Dannenberg, S. Dapprich, A. D. Daniels, 
 O. Farkas, J. B. Foresman, J. V. Ortiz, J. Cioslowski, 
 and D. J. Fox, Gaussian, Inc., Wallingford CT, 2009.
 
 ******************************************
 Gaussian 09:  EM64L-G09RevA.02 11-Jun-2009
                10-Jul-2013 
 ******************************************
 %chk=vibave
 %mem=1000mb
 %nproc=1
 Will use up to    1 processors via shared memory.
 ----------------------------------------------------------------------
 #P B3LYP/6-311++G** scf(conver=11) int=ultrafine polar=optrot cphf(rdf
 req,conver=11)
 ----------------------------------------------------------------------
 1/38=1,83=21/1;
 2/12=2,17=6,18=5,40=1/2;
 3/5=4,6=6,7=1111,11=2,16=1,25=1,30=1,36=2,74=-5,75=-5/1,2,3;
 4//1;
 5/5=2,6=11,38=5,96=-2,98=1/2;
 8/6=4,10=90,11=11/1;
 10/6=1,7=11,13=10,46=8,60=-2,72=3/2;
 6/7=2,8=2,9=2,10=2,28=1/1;
 99/5=1,9=1/99;
 Leave Link    1 at Wed Jul 10 16:50:10 2013, MaxMem=  131072000 cpu:       0.1
 (Enter /cerebro/home/software/apps/g09/l101.exe)
 -----------------------------
 (R)-3-chloro-1-butene tau=120
 -----------------------------
 Symbolic Z-matrix:
 Charge =  0 Multiplicity = 1
 C                     0.46835   1.75384   0.04013 
 C                    -0.00029   0.34649  -0.32452 
 C                    -1.16823  -0.08315   0.43881 
 C                    -2.36477  -0.50931  -0.17106 
 H                    -2.38753  -0.53757  -1.26326 
 H                     1.37344   2.02382  -0.50644 
 H                    -3.19902  -0.78973   0.47234 
 H                    -1.16161  -0.07352   1.5333 
 H                    -0.13791   0.26501  -1.40189 
 H                     0.67731   1.83312   1.10901 
 H                    -0.31904   2.46998  -0.21385 
 Cl                    1.38573  -0.8372    0.02289 
 
 NAtoms=     12 NQM=     12 NQMF=      0 NMic=      0 NMicF=      0 NTot=     12.
                    Isotopes and Nuclear Properties:
 (Nuclear quadrupole moments (NQMom) in fm**2, nuclear magnetic moments (NMagM)
  in nuclear magnetons)

  Atom         1           2           3           4           5           6           7           8           9          10
 IAtWgt=          12          12          12          12           1           1           1           1           1           1
 AtmWgt=  12.0000000  12.0000000  12.0000000  12.0000000   1.0078250   1.0078250   1.0078250   1.0078250   1.0078250   1.0078250
 NucSpn=           0           0           0           0           1           1           1           1           1           1
 AtZEff=   0.0000000   0.0000000   0.0000000   0.0000000   0.0000000   0.0000000   0.0000000   0.0000000   0.0000000   0.0000000
 NQMom=    0.0000000   0.0000000   0.0000000   0.0000000   0.0000000   0.0000000   0.0000000   0.0000000   0.0000000   0.0000000
 NMagM=    0.0000000   0.0000000   0.0000000   0.0000000   2.7928460   2.7928460   2.7928460   2.7928460   2.7928460   2.7928460

  Atom        11          12
 IAtWgt=           1          35
 AtmWgt=   1.0078250  34.9688527
 NucSpn=           1           3
 AtZEff=   0.0000000   0.0000000
 NQMom=    0.0000000  -8.1650000
 NMagM=    2.7928460   0.8218740
 Using perturbation frequencies:    0.071980    0.077357    0.104503    0.128347
 Leave Link  101 at Wed Jul 10 16:50:11 2013, MaxMem=  131072000 cpu:       0.3
 (Enter /cerebro/home/software/apps/g09/l202.exe)
                          Input orientation:                          
 ---------------------------------------------------------------------
 Center     Atomic      Atomic             Coordinates (Angstroms)
 Number     Number       Type             X           Y           Z
 ---------------------------------------------------------------------
      1          6           0        0.468352    1.753838    0.040129
      2          6           0       -0.000290    0.346493   -0.324521
      3          6           0       -1.168230   -0.083150    0.438807
      4          6           0       -2.364770   -0.509309   -0.171056
      5          1           0       -2.387529   -0.537572   -1.263258
      6          1           0        1.373441    2.023819   -0.506436
      7          1           0       -3.199020   -0.789729    0.472343
      8          1           0       -1.161608   -0.073516    1.533302
      9          1           0       -0.137905    0.265010   -1.401894
     10          1           0        0.677310    1.833115    1.109010
     11          1           0       -0.319045    2.469976   -0.213852
     12         17           0        1.385734   -0.837199    0.022887
 ---------------------------------------------------------------------
                    Distance matrix (angstroms):
                    1          2          3          4          5
     1  C    0.000000
     2  C    1.527486   0.000000
     3  C    2.492362   1.459913   0.000000
     4  C    3.632219   2.519269   1.408990   0.000000
     5  H    3.886571   2.713247   2.142479   1.092804   0.000000
     6  H    1.091241   2.175696   3.434078   4.528072   4.612852
     7  H    4.483989   3.486814   2.150462   1.090216   1.932462
     8  H    2.868024   2.230824   1.094558   2.131279   3.088524
     9  H    2.159533   1.089178   2.137981   2.659597   2.392523
    10  H    1.091996   2.173522   2.743585   4.047192   4.543242
    11  H    1.094237   2.150124   2.768669   3.614272   3.798056
    12  Cl   2.748701   1.855501   2.695239   3.769802   3.997682
                    6          7          8          9         10
     6  H    0.000000
     7  H    5.457239   0.000000
     8  H    3.871152   2.406168   0.000000
     9  H    2.485844   3.741077   3.126970   0.000000
    10  H    1.769359   4.723409   2.682701   3.070532   0.000000
    11  H    1.774589   4.403499   3.198721   2.511201   1.774339
    12  Cl   2.909598   4.606977   3.058352   2.359310   2.968519
                   11         12
    11  H    0.000000
    12  Cl   3.728234   0.000000
 Stoichiometry    C4H7Cl
 Framework group  C1[X(C4H7Cl)]
 Deg. of freedom    30
 Full point group                 C1      NOp   1
 Largest Abelian subgroup         C1      NOp   1
 Largest concise Abelian subgroup C1      NOp   1
                         Standard orientation:                         
 ---------------------------------------------------------------------
 Center     Atomic      Atomic             Coordinates (Angstroms)
 Number     Number       Type             X           Y           Z
 ---------------------------------------------------------------------
      1          6           0        0.471949    1.752674    0.039744
      2          6           0        0.000195    0.346369   -0.324906
      3          6           0       -1.168692   -0.080689    0.438422
      4          6           0       -2.366172   -0.504200   -0.171441
      5          1           0       -2.388994   -0.532413   -1.263642
      6          1           0        1.377632    2.020653   -0.506820
      7          1           0       -3.201040   -0.782775    0.471959
      8          1           0       -1.162049   -0.071070    1.532918
      9          1           0       -0.137600    0.265191   -1.402278
     10          1           0        0.681081    1.831489    1.108625
     11          1           0       -0.313862    2.470553   -0.214237
     12         17           0        1.383597   -0.840386    0.022503
 ---------------------------------------------------------------------
 Rotational constants (GHZ):      5.5290264      2.7318150      1.9973457
 Leave Link  202 at Wed Jul 10 16:50:11 2013, MaxMem=  131072000 cpu:       0.0
 (Enter /cerebro/home/software/apps/g09/l301.exe)
 Standard basis: 6-311++G(d,p) (5D, 7F)
 Ernie: Thresh=  0.10000D-02 Tol=  0.10000D-05 Strict=F.
 There are   167 symmetry adapted basis functions of A   symmetry.
 Integral buffers will be    131072 words long.
 Raffenetti 2 integral format.
 Two-electron integral symmetry is turned on.
   167 basis functions,   260 primitive gaussians,   172 cartesian basis functions
    24 alpha electrons       24 beta electrons
       nuclear repulsion energy       211.0183540227 Hartrees.
 IExCor=  402 DFT=T Ex+Corr=B3LYP ExCW=0 ScaHFX=  0.200000
 ScaDFX=  0.800000  0.720000  1.000000  0.810000 ScalE2=  1.000000  1.000000
 IRadAn=      5 IRanWt=     -1 IRanGd=            0 ICorTp=0
 NAtoms=   12 NActive=   12 NUniq=   12 SFac= 7.50D-01 NAtFMM=   80 NAOKFM=F Big=F
 Leave Link  301 at Wed Jul 10 16:50:11 2013, MaxMem=  131072000 cpu:       0.1
 (Enter /cerebro/home/software/apps/g09/l302.exe)
 NPDir=0 NMtPBC=     1 NCelOv=     1 NCel=       1 NClECP=     1 NCelD=      1
         NCelK=      1 NCelE2=     1 NClLst=     1 CellRange=     0.0.
 One-electron integrals computed using PRISM.
 NBasis=   167 RedAO= T  NBF=   167
 NBsUse=   167 1.00D-06 NBFU=   167
 Precomputing XC quadrature grid using
 IXCGrd= 2 IRadAn=           5 IRanWt=          -1 IRanGd=           0 AccXCQ= 1.00D-10.
 NRdTot=    1019 NPtTot=      274288 NUsed=      281590 NTot=      281622
 NSgBfM=   172   172   172   172   172 NAtAll=    12    12.
 Leave Link  302 at Wed Jul 10 16:50:12 2013, MaxMem=  131072000 cpu:       0.7
 (Enter /cerebro/home/software/apps/g09/l303.exe)
 DipDrv:  MaxL=2.
 Leave Link  303 at Wed Jul 10 16:50:12 2013, MaxMem=  131072000 cpu:       0.2
 (Enter /cerebro/home/software/apps/g09/l401.exe)
 Harris functional with IExCor=  402 diagonalized for initial guess.
 ExpMin= 3.60D-02 ExpMax= 1.06D+05 ExpMxC= 3.62D+03 IAcc=3 IRadAn=         5 AccDes= 0.00D+00
 HarFok:  IExCor=  402 AccDes= 0.00D+00 IRadAn=         5 IDoV= 1
 ScaDFX=  1.000000  1.000000  1.000000  1.000000
 FoFCou: FMM=F IPFlag=           0 FMFlag=      100000 FMFlg1=           0
         NFxFlg=           0 DoJE=T BraDBF=F KetDBF=T FulRan=T
         Omega=  0.000000  0.000000  1.000000  0.000000  0.000000 ICntrl=     500 IOpCl=  0
         NMat0=    1 NMatS0=    1 NMatT0=    0 NMatD0=    1 NMtDS0=    0 NMtDT0=    0
         I1Cent=           4 NGrid=           0.
 Petite list used in FoFCou.
 Harris En= -616.896633884398    
 Initial guess orbital symmetries:
       Occupied  (A) (A) (A) (A) (A) (A) (A) (A) (A) (A) (A) (A)
                 (A) (A) (A) (A) (A) (A) (A) (A) (A) (A) (A) (A)
       Virtual   (A) (A) (A) (A) (A) (A) (A) (A) (A) (A) (A) (A)
                 (A) (A) (A) (A) (A) (A) (A) (A) (A) (A) (A) (A)
                 (A) (A) (A) (A) (A) (A) (A) (A) (A) (A) (A) (A)
                 (A) (A) (A) (A) (A) (A) (A) (A) (A) (A) (A) (A)
                 (A) (A) (A) (A) (A) (A) (A) (A) (A) (A) (A) (A)
                 (A) (A) (A) (A) (A) (A) (A) (A) (A) (A) (A) (A)
                 (A) (A) (A) (A) (A) (A) (A) (A) (A) (A) (A) (A)
                 (A) (A) (A) (A) (A) (A) (A) (A) (A) (A) (A) (A)
                 (A) (A) (A) (A) (A) (A) (A) (A) (A) (A) (A) (A)
                 (A) (A) (A) (A) (A) (A) (A) (A) (A) (A) (A) (A)
                 (A) (A) (A) (A) (A) (A) (A) (A) (A) (A) (A) (A)
                 (A) (A) (A) (A) (A) (A) (A) (A) (A) (A) (A)
 The electronic state of the initial guess is 1-A.
 Leave Link  401 at Wed Jul 10 16:50:19 2013, MaxMem=  131072000 cpu:       7.4
 (Enter /cerebro/home/software/apps/g09/l502.exe)
 Closed shell SCF:
 Requested convergence on RMS density matrix=1.00D-11 within 128 cycles.
 Requested convergence on MAX density matrix=1.00D-09.
 Requested convergence on             energy=1.00D-09.
 No special actions if energy rises.
 Using DIIS extrapolation, IDIIS=  1040.
 Integral symmetry usage will be decided dynamically.
       281469 words used for storage of precomputed grid.
 Keep R1 ints in memory in canonical form, NReq=113664361.
 IEnd=      390694 IEndB=      390694 NGot=   131072000 MDV=    20042794
 LenX=    20042794 LenY=    20012769
 Symmetry not used in FoFDir.
 MinBra= 0 MaxBra= 2 Meth= 1.
 IRaf=       0 NMat=   1 IRICut=       1 DoRegI=T DoRafI=F ISym2E= 0 JSym2E=0.

 Cycle   1  Pass 1  IDiag  1:
 E= -616.728639815654    
 DIIS: error= 2.65D-02 at cycle   1 NSaved=   1.
 NSaved= 1 IEnMin= 1 EnMin= -616.728639815654     IErMin= 1 ErrMin= 2.65D-02
 ErrMax= 2.65D-02 EMaxC= 1.00D-01 BMatC= 1.90D-01 BMatP= 1.90D-01
 IDIUse=3 WtCom= 7.35D-01 WtEn= 2.65D-01
 Coeff-Com:  0.100D+01
 Coeff-En:   0.100D+01
 Coeff:      0.100D+01
 Gap=     0.333 Goal=   None    Shift=    0.000
 GapD=    0.333 DampG=1.000 DampE=0.500 DampFc=0.5000 IDamp=-1.
 Damping current iteration by 5.00D-01
 RMSDP=6.34D-03 MaxDP=1.33D-01              OVMax= 2.06D-01

 Cycle   2  Pass 1  IDiag  1:
 E= -616.794473148771     Delta-E=       -0.065833333117 Rises=F Damp=T
 DIIS: error= 6.06D-03 at cycle   2 NSaved=   2.
 NSaved= 2 IEnMin= 2 EnMin= -616.794473148771     IErMin= 2 ErrMin= 6.06D-03
 ErrMax= 6.06D-03 EMaxC= 1.00D-01 BMatC= 1.27D-02 BMatP= 1.90D-01
 IDIUse=3 WtCom= 9.39D-01 WtEn= 6.06D-02
 Coeff-Com:  0.376D-01 0.962D+00
 Coeff-En:   0.181D+00 0.819D+00
 Coeff:      0.463D-01 0.954D+00
 Gap=     0.273 Goal=   None    Shift=    0.000
 RMSDP=4.51D-03 MaxDP=2.31D-01 DE=-6.58D-02 OVMax= 1.30D-01

 Cycle   3  Pass 1  IDiag  1:
 E= -616.881712281791     Delta-E=       -0.087239133021 Rises=F Damp=F
 DIIS: error= 6.44D-03 at cycle   3 NSaved=   3.
 NSaved= 3 IEnMin= 3 EnMin= -616.881712281791     IErMin= 2 ErrMin= 6.06D-03
 ErrMax= 6.44D-03 EMaxC= 1.00D-01 BMatC= 5.45D-03 BMatP= 1.27D-02
 IDIUse=3 WtCom= 9.36D-01 WtEn= 6.44D-02
 Coeff-Com: -0.659D-01 0.360D+00 0.706D+00
 Coeff-En:   0.000D+00 0.000D+00 0.100D+01
 Coeff:     -0.616D-01 0.337D+00 0.725D+00
 Gap=     0.233 Goal=   None    Shift=    0.000
 RMSDP=1.89D-03 MaxDP=6.31D-02 DE=-8.72D-02 OVMax= 3.39D-02

 Cycle   4  Pass 1  IDiag  1:
 E= -616.885734296798     Delta-E=       -0.004022015007 Rises=F Damp=F
 DIIS: error= 3.34D-03 at cycle   4 NSaved=   4.
 NSaved= 4 IEnMin= 4 EnMin= -616.885734296798     IErMin= 4 ErrMin= 3.34D-03
 ErrMax= 3.34D-03 EMaxC= 1.00D-01 BMatC= 2.12D-03 BMatP= 5.45D-03
 IDIUse=3 WtCom= 9.67D-01 WtEn= 3.34D-02
 Coeff-Com: -0.395D-01 0.132D+00 0.446D+00 0.461D+00
 Coeff-En:   0.000D+00 0.000D+00 0.256D+00 0.744D+00
 Coeff:     -0.382D-01 0.128D+00 0.440D+00 0.471D+00
 Gap=     0.225 Goal=   None    Shift=    0.000
 RMSDP=5.58D-04 MaxDP=1.76D-02 DE=-4.02D-03 OVMax= 1.87D-02

 Cycle   5  Pass 1  IDiag  1:
 E= -616.887682817321     Delta-E=       -0.001948520523 Rises=F Damp=F
 DIIS: error= 7.13D-04 at cycle   5 NSaved=   5.
 NSaved= 5 IEnMin= 5 EnMin= -616.887682817321     IErMin= 5 ErrMin= 7.13D-04
 ErrMax= 7.13D-04 EMaxC= 1.00D-01 BMatC= 1.33D-04 BMatP= 2.12D-03
 IDIUse=3 WtCom= 9.93D-01 WtEn= 7.13D-03
 Coeff-Com: -0.174D-01 0.522D-01 0.215D+00 0.273D+00 0.477D+00
 Coeff-En:   0.000D+00 0.000D+00 0.000D+00 0.000D+00 0.100D+01
 Coeff:     -0.173D-01 0.518D-01 0.214D+00 0.271D+00 0.481D+00
 Gap=     0.226 Goal=   None    Shift=    0.000
 RMSDP=1.13D-04 MaxDP=3.48D-03 DE=-1.95D-03 OVMax= 9.09D-03

 Cycle   6  Pass 1  IDiag  1:
 E= -616.887809499937     Delta-E=       -0.000126682616 Rises=F Damp=F
 DIIS: error= 2.81D-04 at cycle   6 NSaved=   6.
 NSaved= 6 IEnMin= 6 EnMin= -616.887809499937     IErMin= 6 ErrMin= 2.81D-04
 ErrMax= 2.81D-04 EMaxC= 1.00D-01 BMatC= 1.87D-05 BMatP= 1.33D-04
 IDIUse=3 WtCom= 9.97D-01 WtEn= 2.81D-03
 Coeff-Com: -0.395D-02 0.791D-02 0.569D-01 0.820D-01 0.292D+00 0.565D+00
 Coeff-En:   0.000D+00 0.000D+00 0.000D+00 0.000D+00 0.123D+00 0.877D+00
 Coeff:     -0.394D-02 0.789D-02 0.567D-01 0.818D-01 0.292D+00 0.566D+00
 Gap=     0.226 Goal=   None    Shift=    0.000
 RMSDP=5.60D-05 MaxDP=1.84D-03 DE=-1.27D-04 OVMax= 2.48D-03

 Cycle   7  Pass 1  IDiag  1:
 E= -616.887827931235     Delta-E=       -0.000018431298 Rises=F Damp=F
 DIIS: error= 3.87D-05 at cycle   7 NSaved=   7.
 NSaved= 7 IEnMin= 7 EnMin= -616.887827931235     IErMin= 7 ErrMin= 3.87D-05
 ErrMax= 3.87D-05 EMaxC= 1.00D-01 BMatC= 4.42D-07 BMatP= 1.87D-05
 IDIUse=1 WtCom= 1.00D+00 WtEn= 0.00D+00
 Coeff-Com: -0.754D-03 0.519D-03 0.132D-01 0.195D-01 0.926D-01 0.235D+00
 Coeff-Com:  0.640D+00
 Coeff:     -0.754D-03 0.519D-03 0.132D-01 0.195D-01 0.926D-01 0.235D+00
 Coeff:      0.640D+00
 Gap=     0.226 Goal=   None    Shift=    0.000
 RMSDP=1.10D-05 MaxDP=3.91D-04 DE=-1.84D-05 OVMax= 1.62D-04

 Cycle   8  Pass 1  IDiag  1:
 E= -616.887828331894     Delta-E=       -0.000000400659 Rises=F Damp=F
 DIIS: error= 6.73D-06 at cycle   8 NSaved=   8.
 NSaved= 8 IEnMin= 8 EnMin= -616.887828331894     IErMin= 8 ErrMin= 6.73D-06
 ErrMax= 6.73D-06 EMaxC= 1.00D-01 BMatC= 1.97D-08 BMatP= 4.42D-07
 IDIUse=1 WtCom= 1.00D+00 WtEn= 0.00D+00
 Coeff-Com:  0.504D-04-0.373D-03 0.853D-03 0.141D-02 0.149D-01 0.534D-01
 Coeff-Com:  0.234D+00 0.696D+00
 Coeff:      0.504D-04-0.373D-03 0.853D-03 0.141D-02 0.149D-01 0.534D-01
 Coeff:      0.234D+00 0.696D+00
 Gap=     0.226 Goal=   None    Shift=    0.000
 RMSDP=2.14D-06 MaxDP=5.25D-05 DE=-4.01D-07 OVMax= 4.82D-05

 Cycle   9  Pass 1  IDiag  1:
 E= -616.887828350683     Delta-E=       -0.000000018789 Rises=F Damp=F
 DIIS: error= 2.27D-06 at cycle   9 NSaved=   9.
 NSaved= 9 IEnMin= 9 EnMin= -616.887828350683     IErMin= 9 ErrMin= 2.27D-06
 ErrMax= 2.27D-06 EMaxC= 1.00D-01 BMatC= 1.13D-09 BMatP= 1.97D-08
 IDIUse=1 WtCom= 1.00D+00 WtEn= 0.00D+00
 Coeff-Com:  0.432D-04-0.100D-03-0.475D-03-0.665D-03-0.204D-02-0.161D-02
 Coeff-Com:  0.164D-01 0.228D+00 0.760D+00
 Coeff:      0.432D-04-0.100D-03-0.475D-03-0.665D-03-0.204D-02-0.161D-02
 Coeff:      0.164D-01 0.228D+00 0.760D+00
 Gap=     0.226 Goal=   None    Shift=    0.000
 RMSDP=9.02D-07 MaxDP=3.20D-05 DE=-1.88D-08 OVMax= 9.39D-06

 Cycle  10  Pass 1  IDiag  1:
 E= -616.887828351841     Delta-E=       -0.000000001158 Rises=F Damp=F
 DIIS: error= 2.11D-07 at cycle  10 NSaved=  10.
 NSaved=10 IEnMin=10 EnMin= -616.887828351841     IErMin=10 ErrMin= 2.11D-07
 ErrMax= 2.11D-07 EMaxC= 1.00D-01 BMatC= 1.46D-11 BMatP= 1.13D-09
 IDIUse=1 WtCom= 1.00D+00 WtEn= 0.00D+00
 Coeff-Com:  0.724D-05-0.110D-04-0.132D-03-0.182D-03-0.823D-03-0.149D-02
 Coeff-Com: -0.160D-02 0.415D-01 0.180D+00 0.782D+00
 Coeff:      0.724D-05-0.110D-04-0.132D-03-0.182D-03-0.823D-03-0.149D-02
 Coeff:     -0.160D-02 0.415D-01 0.180D+00 0.782D+00
 Gap=     0.226 Goal=   None    Shift=    0.000
 RMSDP=1.32D-07 MaxDP=5.02D-06 DE=-1.16D-09 OVMax= 1.24D-06

 Cycle  11  Pass 1  IDiag  1:
 E= -616.887828351856     Delta-E=       -0.000000000015 Rises=F Damp=F
 DIIS: error= 5.93D-08 at cycle  11 NSaved=  11.
 NSaved=11 IEnMin=11 EnMin= -616.887828351856     IErMin=11 ErrMin= 5.93D-08
 ErrMax= 5.93D-08 EMaxC= 1.00D-01 BMatC= 7.57D-13 BMatP= 1.46D-11
 IDIUse=1 WtCom= 1.00D+00 WtEn= 0.00D+00
 Coeff-Com:  0.588D-06-0.709D-07-0.213D-04-0.310D-04-0.157D-03-0.253D-03
 Coeff-Com: -0.693D-03 0.355D-02 0.239D-01 0.195D+00 0.779D+00
 Coeff:      0.588D-06-0.709D-07-0.213D-04-0.310D-04-0.157D-03-0.253D-03
 Coeff:     -0.693D-03 0.355D-02 0.239D-01 0.195D+00 0.779D+00
 Gap=     0.226 Goal=   None    Shift=    0.000
 RMSDP=3.39D-08 MaxDP=1.35D-06 DE=-1.52D-11 OVMax= 3.47D-07

 Cycle  12  Pass 1  IDiag  1:
 E= -616.887828351858     Delta-E=       -0.000000000002 Rises=F Damp=F
 DIIS: error= 2.46D-08 at cycle  12 NSaved=  12.
 NSaved=12 IEnMin=12 EnMin= -616.887828351858     IErMin=12 ErrMin= 2.46D-08
 ErrMax= 2.46D-08 EMaxC= 1.00D-01 BMatC= 1.42D-13 BMatP= 7.57D-13
 IDIUse=1 WtCom= 1.00D+00 WtEn= 0.00D+00
 Coeff-Com: -0.302D-06 0.798D-06-0.154D-06-0.165D-05-0.203D-04-0.195D-04
 Coeff-Com: -0.279D-03-0.159D-02-0.184D-02 0.323D-01 0.352D+00 0.619D+00
 Coeff:     -0.302D-06 0.798D-06-0.154D-06-0.165D-05-0.203D-04-0.195D-04
 Coeff:     -0.279D-03-0.159D-02-0.184D-02 0.323D-01 0.352D+00 0.619D+00
 Gap=     0.226 Goal=   None    Shift=    0.000
 RMSDP=5.94D-09 MaxDP=1.94D-07 DE=-1.82D-12 OVMax= 8.41D-08

 Cycle  13  Pass 1  IDiag  1:
 E= -616.887828351857     Delta-E=        0.000000000001 Rises=F Damp=F
 DIIS: error= 5.05D-09 at cycle  13 NSaved=  13.
 NSaved=13 IEnMin=12 EnMin= -616.887828351858     IErMin=13 ErrMin= 5.05D-09
 ErrMax= 5.05D-09 EMaxC= 1.00D-01 BMatC= 7.99D-15 BMatP= 1.42D-13
 IDIUse=1 WtCom= 1.00D+00 WtEn= 0.00D+00
 Coeff-Com: -0.154D-06 0.336D-06 0.138D-05 0.130D-05 0.611D-06 0.993D-05
 Coeff-Com: -0.711D-04-0.836D-03-0.214D-02 0.448D-03 0.948D-01 0.254D+00
 Coeff-Com:  0.654D+00
 Coeff:     -0.154D-06 0.336D-06 0.138D-05 0.130D-05 0.611D-06 0.993D-05
 Coeff:     -0.711D-04-0.836D-03-0.214D-02 0.448D-03 0.948D-01 0.254D+00
 Coeff:      0.654D+00
 Gap=     0.226 Goal=   None    Shift=    0.000
 RMSDP=2.68D-09 MaxDP=1.22D-07 DE= 9.09D-13 OVMax= 2.74D-08

 Cycle  14  Pass 1  IDiag  1:
 E= -616.887828351854     Delta-E=        0.000000000002 Rises=F Damp=F
 DIIS: error= 1.03D-09 at cycle  14 NSaved=  14.
 NSaved=14 IEnMin=12 EnMin= -616.887828351858     IErMin=14 ErrMin= 1.03D-09
 ErrMax= 1.03D-09 EMaxC= 1.00D-01 BMatC= 3.39D-16 BMatP= 7.99D-15
 IDIUse=1 WtCom= 1.00D+00 WtEn= 0.00D+00
 Coeff-Com: -0.116D-07 0.210D-07 0.365D-06 0.464D-06 0.112D-05 0.347D-05
 Coeff-Com: -0.180D-05-0.102D-03-0.456D-03-0.264D-02-0.152D-02 0.206D-01
 Coeff-Com:  0.192D+00 0.792D+00
 Coeff:     -0.116D-07 0.210D-07 0.365D-06 0.464D-06 0.112D-05 0.347D-05
 Coeff:     -0.180D-05-0.102D-03-0.456D-03-0.264D-02-0.152D-02 0.206D-01
 Coeff:      0.192D+00 0.792D+00
 Gap=     0.226 Goal=   None    Shift=    0.000
 RMSDP=7.05D-10 MaxDP=2.94D-08 DE= 2.39D-12 OVMax= 4.72D-09

 Cycle  15  Pass 1  IDiag  1:
 E= -616.887828351855     Delta-E=       -0.000000000001 Rises=F Damp=F
 DIIS: error= 2.10D-10 at cycle  15 NSaved=  15.
 NSaved=15 IEnMin=12 EnMin= -616.887828351858     IErMin=15 ErrMin= 2.10D-10
 ErrMax= 2.10D-10 EMaxC= 1.00D-01 BMatC= 5.49D-18 BMatP= 3.39D-16
 IDIUse=1 WtCom= 1.00D+00 WtEn= 0.00D+00
 Coeff-Com:  0.132D-08-0.316D-08 0.387D-07 0.782D-07 0.185D-06 0.447D-06
 Coeff-Com:  0.148D-05 0.329D-05-0.267D-04-0.495D-03-0.280D-02-0.353D-02
 Coeff-Com:  0.185D-01 0.135D+00 0.853D+00
 Coeff:      0.132D-08-0.316D-08 0.387D-07 0.782D-07 0.185D-06 0.447D-06
 Coeff:      0.148D-05 0.329D-05-0.267D-04-0.495D-03-0.280D-02-0.353D-02
 Coeff:      0.185D-01 0.135D+00 0.853D+00
 Gap=     0.226 Goal=   None    Shift=    0.000
 RMSDP=1.16D-10 MaxDP=3.69D-09 DE=-5.68D-13 OVMax= 8.77D-10

 Cycle  16  Pass 1  IDiag  1:
 E= -616.887828351857     Delta-E=       -0.000000000002 Rises=F Damp=F
 DIIS: error= 5.71D-11 at cycle  16 NSaved=  16.
 NSaved=16 IEnMin=12 EnMin= -616.887828351858     IErMin=16 ErrMin= 5.71D-11
 ErrMax= 5.71D-11 EMaxC= 1.00D-01 BMatC= 3.17D-19 BMatP= 5.49D-18
 IDIUse=1 WtCom= 1.00D+00 WtEn= 0.00D+00
 Large coefficients: NSaved= 16 BigCof=    0.00 CofMax=   10.00 Det=-3.27D-18
 Inversion failed.  Reducing to 15 matrices.
 Coeff-Com: -0.219D-09 0.419D-08 0.143D-07 0.373D-07 0.861D-07 0.462D-06
 Coeff-Com:  0.219D-05 0.405D-05-0.330D-04-0.503D-03-0.131D-02-0.199D-02
 Coeff-Com:  0.390D-03 0.199D+00 0.805D+00
 Coeff:     -0.219D-09 0.419D-08 0.143D-07 0.373D-07 0.861D-07 0.462D-06
 Coeff:      0.219D-05 0.405D-05-0.330D-04-0.503D-03-0.131D-02-0.199D-02
 Coeff:      0.390D-03 0.199D+00 0.805D+00
 Gap=     0.226 Goal=   None    Shift=    0.000
 RMSDP=3.90D-11 MaxDP=2.33D-09 DE=-2.27D-12 OVMax= 2.38D-10

 Cycle  17  Pass 1  IDiag  1:
 E= -616.887828351858     Delta-E=       -0.000000000001 Rises=F Damp=F
 DIIS: error= 1.04D-11 at cycle  17 NSaved=  16.
 NSaved=16 IEnMin=16 EnMin= -616.887828351858     IErMin=16 ErrMin= 1.04D-11
 ErrMax= 1.04D-11 EMaxC= 1.00D-01 BMatC= 1.37D-20 BMatP= 3.17D-19
 IDIUse=1 WtCom= 1.00D+00 WtEn= 0.00D+00
 Large coefficients: NSaved= 16 BigCof=    0.00 CofMax=   10.00 Det=-1.71D-19
 Inversion failed.  Reducing to 15 matrices.
 Coeff-Com: -0.186D-08-0.184D-08-0.406D-08-0.658D-08 0.428D-07 0.485D-06
 Coeff-Com:  0.311D-05 0.191D-04 0.765D-05-0.163D-03-0.157D-02-0.746D-02
 Coeff-Com:  0.640D-02 0.200D+00 0.803D+00
 Coeff:     -0.186D-08-0.184D-08-0.406D-08-0.658D-08 0.428D-07 0.485D-06
 Coeff:      0.311D-05 0.191D-04 0.765D-05-0.163D-03-0.157D-02-0.746D-02
 Coeff:      0.640D-02 0.200D+00 0.803D+00
 Gap=     0.226 Goal=   None    Shift=    0.000
 RMSDP=1.52D-11 MaxDP=8.36D-10 DE=-1.02D-12 OVMax= 3.67D-11

 Cycle  18  Pass 1  IDiag  1:
 E= -616.887828351858     Delta-E=        0.000000000000 Rises=F Damp=F
 DIIS: error= 2.94D-12 at cycle  18 NSaved=  16.
 NSaved=16 IEnMin=16 EnMin= -616.887828351858     IErMin=16 ErrMin= 2.94D-12
 ErrMax= 2.94D-12 EMaxC= 1.00D-01 BMatC= 6.27D-22 BMatP= 1.37D-20
 IDIUse=1 WtCom= 1.00D+00 WtEn= 0.00D+00
 Large coefficients: NSaved= 16 BigCof=    0.00 CofMax=   10.00 Det=-5.71D-21
 Inversion failed.  Reducing to 15 matrices.
 Coeff-Com: -0.320D-10 0.112D-08 0.139D-08 0.116D-07 0.287D-07 0.200D-06
 Coeff-Com:  0.135D-05-0.192D-05-0.645D-05-0.143D-03-0.803D-03-0.179D-02
 Coeff-Com:  0.193D-01 0.154D+00 0.829D+00
 Coeff:     -0.320D-10 0.112D-08 0.139D-08 0.116D-07 0.287D-07 0.200D-06
 Coeff:      0.135D-05-0.192D-05-0.645D-05-0.143D-03-0.803D-03-0.179D-02
 Coeff:      0.193D-01 0.154D+00 0.829D+00
 Gap=     0.226 Goal=   None    Shift=    0.000
 RMSDP=2.08D-11 MaxDP=1.12D-09 DE=-1.14D-13 OVMax= 9.78D-12

 Cycle  19  Pass 1  IDiag  1:
 E= -616.887828351857     Delta-E=        0.000000000001 Rises=F Damp=F
 DIIS: error= 2.89D-12 at cycle  19 NSaved=  16.
 NSaved=16 IEnMin=15 EnMin= -616.887828351858     IErMin=16 ErrMin= 2.89D-12
 ErrMax= 2.89D-12 EMaxC= 1.00D-01 BMatC= 2.62D-22 BMatP= 6.27D-22
 IDIUse=1 WtCom= 1.00D+00 WtEn= 0.00D+00
 Large coefficients: NSaved= 16 BigCof=    0.00 CofMax=   10.00 Det=-7.63D-22
 Inversion failed.  Reducing to 15 matrices.
 Coeff-Com:  0.466D-09 0.131D-09 0.248D-08 0.445D-08 0.777D-07 0.889D-06
 Coeff-Com:  0.508D-06-0.155D-05-0.689D-04-0.391D-03-0.929D-03 0.743D-02
 Coeff-Com:  0.587D-01 0.356D+00 0.579D+00
 Coeff:      0.466D-09 0.131D-09 0.248D-08 0.445D-08 0.777D-07 0.889D-06
 Coeff:      0.508D-06-0.155D-05-0.689D-04-0.391D-03-0.929D-03 0.743D-02
 Coeff:      0.587D-01 0.356D+00 0.579D+00
 Gap=     0.226 Goal=   None    Shift=    0.000
 RMSDP=1.38D-11 MaxDP=1.10D-09 DE= 1.14D-12 OVMax= 4.27D-12

 Cycle  20  Pass 1  IDiag  1:
 E= -616.887828351858     Delta-E=       -0.000000000001 Rises=F Damp=F
 DIIS: error= 2.43D-12 at cycle  20 NSaved=  16.
 NSaved=16 IEnMin=14 EnMin= -616.887828351858     IErMin=16 ErrMin= 2.43D-12
 ErrMax= 2.43D-12 EMaxC= 1.00D-01 BMatC= 1.58D-22 BMatP= 2.62D-22
 IDIUse=1 WtCom= 1.00D+00 WtEn= 0.00D+00
 Large coefficients: NSaved= 16 BigCof=    0.00 CofMax=   10.00 Det=-3.96D-22
 Inversion failed.  Reducing to 15 matrices.
 Coeff-Com: -0.732D-09-0.269D-08-0.851D-08 0.166D-07 0.452D-06 0.120D-05
 Coeff-Com:  0.365D-05-0.105D-04-0.895D-04-0.644D-03 0.357D-03 0.186D-01
 Coeff-Com:  0.212D+00 0.272D+00 0.497D+00
 Coeff:     -0.732D-09-0.269D-08-0.851D-08 0.166D-07 0.452D-06 0.120D-05
 Coeff:      0.365D-05-0.105D-04-0.895D-04-0.644D-03 0.357D-03 0.186D-01
 Coeff:      0.212D+00 0.272D+00 0.497D+00
 Gap=     0.226 Goal=   None    Shift=    0.000
 RMSDP=8.30D-12 MaxDP=6.21D-10 DE=-1.14D-12 OVMax= 3.35D-12

 SCF Done:  E(RB3LYP) =  -616.887828352     A.U. after   20 cycles
             Convg  =    0.8303D-11             -V/T =  2.0033
 KE= 6.148522230541D+02 PE=-1.878619275657D+03 EE= 4.358608702286D+02
 Leave Link  502 at Wed Jul 10 16:55:02 2013, MaxMem=  131072000 cpu:     282.7
 (Enter /cerebro/home/software/apps/g09/l801.exe)
 Range of M.O.s used for correlation:     1   167
 NBasis=   167 NAE=    24 NBE=    24 NFC=     0 NFV=     0
 NROrb=    167 NOA=    24 NOB=    24 NVA=   143 NVB=   143

 **** Warning!!: The largest alpha MO coefficient is  0.72688741D+02

 Leave Link  801 at Wed Jul 10 16:55:03 2013, MaxMem=  131072000 cpu:       0.1
 (Enter /cerebro/home/software/apps/g09/l1002.exe)
 Minotr:  Closed shell wavefunction.
          Direct CPHF calculation.
          Differentiating once with respect to magnetic field using GIAOs.
          Electric field/nuclear overlap derivatives assumed to be zero.
          Requested convergence is 1.0D-11 RMS, and 1.0D-10 maximum.
          NewPWx=F KeepS1=T KeepF1=T KeepIn=T MapXYZ=F SortEE=F KeepMc=T.
          MDV=     131071900 using IRadAn=       4.
 Generate precomputed XC quadrature information.
          Solving linear equations separately, MaxMat=       0.
          Doing perturbations at frequencies    0.071980    0.077357    0.104503    0.128347
 FoFCou: FMM=F IPFlag=           0 FMFlag=           0 FMFlg1=           0
         NFxFlg=           0 DoJE=F BraDBF=F KetDBF=T FulRan=T
         Omega=  0.000000  0.000000  1.000000  0.000000  0.000000 ICntrl=    6100 IOpCl=  0
         NMat0=    1 NMatS0=    1 NMatT0=    0 NMatD0=    1 NMtDS0=    0 NMtDT0=    0
         I1Cent=           7 NGrid=          12.
 Symmetry not used in FoFCou.
 Integrals replicated using symmetry in FoFDir.
 MinBra= 0 MaxBra= 2 Meth= 1.
 IRaf=       0 NMat=  24 IRICut=      30 DoRegI=T DoRafI=T ISym2E= 2 JSym2E=2.
 CalDSu exits because no D1Ps are significant.
          There are    12 degrees of freedom in the 1st order CPHF.  IDoFFX=0.
 LinEq1:  Iter=  0 NonCon=    12 RMS=5.91D-02 Max=1.60D+00
 AX will form    12 AO Fock derivatives at one time.
 LinEq1:  Iter=  1 NonCon=    12 RMS=2.35D-02 Max=1.36D+00
 LinEq1:  Iter=  2 NonCon=    12 RMS=1.88D-02 Max=9.77D-01
 LinEq1:  Iter=  3 NonCon=    12 RMS=1.00D-02 Max=2.48D-01
 LinEq1:  Iter=  4 NonCon=    12 RMS=6.61D-03 Max=1.21D-01
 LinEq1:  Iter=  5 NonCon=    12 RMS=2.42D-03 Max=6.74D-02
 LinEq1:  Iter=  6 NonCon=    12 RMS=1.29D-03 Max=2.51D-02
 LinEq1:  Iter=  7 NonCon=    12 RMS=4.75D-04 Max=8.34D-03
 LinEq1:  Iter=  8 NonCon=    12 RMS=2.05D-04 Max=3.84D-03
 LinEq1:  Iter=  9 NonCon=    12 RMS=7.10D-05 Max=1.54D-03
 LinEq1:  Iter= 10 NonCon=    12 RMS=2.80D-05 Max=4.82D-04
 LinEq1:  Iter= 11 NonCon=    12 RMS=1.10D-05 Max=2.28D-04
 LinEq1:  Iter= 12 NonCon=    12 RMS=5.59D-06 Max=1.25D-04
 LinEq1:  Iter= 13 NonCon=    12 RMS=1.97D-06 Max=3.69D-05
 LinEq1:  Iter= 14 NonCon=    12 RMS=5.99D-07 Max=9.77D-06
 LinEq1:  Iter= 15 NonCon=    12 RMS=1.62D-07 Max=3.25D-06
 LinEq1:  Iter= 16 NonCon=    12 RMS=4.78D-08 Max=8.27D-07
 LinEq1:  Iter= 17 NonCon=    12 RMS=1.50D-08 Max=4.50D-07
 LinEq1:  Iter= 18 NonCon=    12 RMS=3.52D-09 Max=9.61D-08
 LinEq1:  Iter= 19 NonCon=    12 RMS=9.96D-10 Max=2.40D-08
 LinEq1:  Iter= 20 NonCon=    12 RMS=3.13D-10 Max=6.99D-09
 LinEq1:  Iter= 21 NonCon=     9 RMS=9.77D-11 Max=1.50D-09
 LinEq1:  Iter= 22 NonCon=     3 RMS=2.26D-11 Max=4.99D-10
 LinEq1:  Iter= 23 NonCon=     1 RMS=6.37D-12 Max=1.09D-10
 LinEq1:  Iter= 24 NonCon=     0 RMS=4.53D-12 Max=6.37D-11
 Linear equations converged to 1.000D-11 1.000D-10 after    24 iterations.
 FullF1:  Do perturbations    1 to    12.
 Dipole-magnetic dipole polarizability for W=    0.071980:
                 1             2             3 
      1   0.538654D+01 -0.561454D+00 -0.684327D+01
      2  -0.954816D+01 -0.526901D+01 -0.214536D+02
      3   0.259162D+02  0.122805D+02  0.155318D+01
 w=    0.071980 a.u., Optical Rotation Beta=     -0.5569 au.
 Molar Mass =     90.5523 grams/mole, [Alpha] ( 6330.0 A) =     -206.03 deg.
 Dipole-magnetic dipole polarizability for W=    0.077357:
                 1             2             3 
      1   0.548307D+01 -0.535519D+00 -0.682464D+01
      2  -0.974617D+01 -0.533011D+01 -0.215541D+02
      3   0.262039D+02  0.124175D+02  0.158666D+01
 w=    0.077357 a.u., Optical Rotation Beta=     -0.5799 au.
 Molar Mass =     90.5523 grams/mole, [Alpha] ( 5890.0 A) =     -247.77 deg.
 Dipole-magnetic dipole polarizability for W=    0.104503:
                 1             2             3 
      1   0.617032D+01 -0.342514D+00 -0.668596D+01
      2  -0.111277D+02 -0.574071D+01 -0.222177D+02
      3   0.282590D+02  0.133794D+02  0.182973D+01
 w=    0.104503 a.u., Optical Rotation Beta=     -0.7531 au.
 Molar Mass =     90.5523 grams/mole, [Alpha] ( 4360.0 A) =     -587.27 deg.
 Dipole-magnetic dipole polarizability for W=    0.128347:
                 1             2             3 
      1   0.720941D+01 -0.312067D-01 -0.646586D+01
      2  -0.131187D+02 -0.628986D+01 -0.230809D+02
      3   0.313941D+02  0.147960D+02  0.221090D+01
 w=    0.128347 a.u., Optical Rotation Beta=     -1.0435 au.
 Molar Mass =     90.5523 grams/mole, [Alpha] ( 3550.0 A) =    -1227.38 deg.
 End of Minotr Frequency-dependent properties on file   721 Mask=       2 NFrqRd=     4 NDeriv=     1 LenFil=      42:
 Frequencies=    0.071980    0.077357    0.104503    0.128347
 Property number 2 -- FD Optical Rotation Tensor frequency  1    0.071980:
                 1             2             3 
      1   0.538654D+01 -0.561454D+00 -0.684327D+01
      2  -0.954816D+01 -0.526901D+01 -0.214536D+02
      3   0.259162D+02  0.122805D+02  0.155318D+01
 Property number 2 -- FD Optical Rotation Tensor frequency  2    0.077357:
                 1             2             3 
      1   0.548307D+01 -0.535519D+00 -0.682464D+01
      2  -0.974617D+01 -0.533011D+01 -0.215541D+02
      3   0.262039D+02  0.124175D+02  0.158666D+01
 Property number 2 -- FD Optical Rotation Tensor frequency  3    0.104503:
                 1             2             3 
      1   0.617032D+01 -0.342514D+00 -0.668596D+01
      2  -0.111277D+02 -0.574071D+01 -0.222177D+02
      3   0.282590D+02  0.133794D+02  0.182973D+01
 Property number 2 -- FD Optical Rotation Tensor frequency  4    0.128347:
                 1             2             3 
      1   0.720941D+01 -0.312067D-01 -0.646586D+01
      2  -0.131187D+02 -0.628986D+01 -0.230809D+02
      3   0.313941D+02  0.147960D+02  0.221090D+01
 End of Minotr Frequency-dependent properties file   722 does not exist.
 Leave Link 1002 at Wed Jul 10 17:29:02 2013, MaxMem=  131072000 cpu:    2030.0
 (Enter /cerebro/home/software/apps/g09/l601.exe)
 Copying SCF densities to generalized density rwf, IOpCl= 0 IROHF=0.

 **********************************************************************

            Population analysis using the SCF density.

 **********************************************************************

 Orbital symmetries:
       Occupied  (A) (A) (A) (A) (A) (A) (A) (A) (A) (A) (A) (A)
                 (A) (A) (A) (A) (A) (A) (A) (A) (A) (A) (A) (A)
       Virtual   (A) (A) (A) (A) (A) (A) (A) (A) (A) (A) (A) (A)
                 (A) (A) (A) (A) (A) (A) (A) (A) (A) (A) (A) (A)
                 (A) (A) (A) (A) (A) (A) (A) (A) (A) (A) (A) (A)
                 (A) (A) (A) (A) (A) (A) (A) (A) (A) (A) (A) (A)
                 (A) (A) (A) (A) (A) (A) (A) (A) (A) (A) (A) (A)
                 (A) (A) (A) (A) (A) (A) (A) (A) (A) (A) (A) (A)
                 (A) (A) (A) (A) (A) (A) (A) (A) (A) (A) (A) (A)
                 (A) (A) (A) (A) (A) (A) (A) (A) (A) (A) (A) (A)
                 (A) (A) (A) (A) (A) (A) (A) (A) (A) (A) (A) (A)
                 (A) (A) (A) (A) (A) (A) (A) (A) (A) (A) (A) (A)
                 (A) (A) (A) (A) (A) (A) (A) (A) (A) (A) (A) (A)
                 (A) (A) (A) (A) (A) (A) (A) (A) (A) (A) (A)
 The electronic state is 1-A.
 Alpha  occ. eigenvalues -- -101.53377 -10.24819 -10.20220 -10.19525 -10.18153
 Alpha  occ. eigenvalues --   -9.44828  -7.21260  -7.20320  -7.20301  -0.86931
 Alpha  occ. eigenvalues --   -0.77969  -0.73795  -0.64205  -0.57841  -0.48346
 Alpha  occ. eigenvalues --   -0.47531  -0.44422  -0.41344  -0.40066  -0.38091
 Alpha  occ. eigenvalues --   -0.36996  -0.30586  -0.29822  -0.27005
 Alpha virt. eigenvalues --   -0.04436  -0.00793   0.00560   0.00643   0.02049
 Alpha virt. eigenvalues --    0.02854   0.03810   0.04108   0.06317   0.06374
 Alpha virt. eigenvalues --    0.07274   0.08198   0.08553   0.09801   0.11028
 Alpha virt. eigenvalues --    0.11591   0.11756   0.12087   0.12913   0.13080
 Alpha virt. eigenvalues --    0.13547   0.14131   0.14962   0.15630   0.16065
 Alpha virt. eigenvalues --    0.16284   0.17182   0.18476   0.19027   0.21432
 Alpha virt. eigenvalues --    0.21867   0.22410   0.24370   0.26335   0.26967
 Alpha virt. eigenvalues --    0.29143   0.34235   0.35407   0.36574   0.42660
 Alpha virt. eigenvalues --    0.43024   0.44736   0.45663   0.47766   0.48995
 Alpha virt. eigenvalues --    0.49512   0.51674   0.52771   0.56921   0.59009
 Alpha virt. eigenvalues --    0.59781   0.62053   0.63367   0.65012   0.65479
 Alpha virt. eigenvalues --    0.66360   0.69320   0.70497   0.71922   0.73682
 Alpha virt. eigenvalues --    0.78802   0.80836   0.82632   0.85548   0.89145
 Alpha virt. eigenvalues --    0.89794   0.94042   0.96147   1.00322   1.02539
 Alpha virt. eigenvalues --    1.05814   1.07891   1.12017   1.16656   1.20054
 Alpha virt. eigenvalues --    1.29368   1.36020   1.39977   1.45247   1.47179
 Alpha virt. eigenvalues --    1.50541   1.53147   1.55755   1.58090   1.59366
 Alpha virt. eigenvalues --    1.62039   1.65241   1.68175   1.69422   1.73078
 Alpha virt. eigenvalues --    1.77339   1.79091   1.87512   1.88676   1.93284
 Alpha virt. eigenvalues --    1.96923   1.99241   2.06148   2.09543   2.10698
 Alpha virt. eigenvalues --    2.18482   2.19779   2.25290   2.28368   2.30136
 Alpha virt. eigenvalues --    2.34448   2.37496   2.44673   2.46259   2.50662
 Alpha virt. eigenvalues --    2.51957   2.56482   2.57286   2.59247   2.60172
 Alpha virt. eigenvalues --    2.64233   2.70143   2.73042   2.74214   2.77742
 Alpha virt. eigenvalues --    2.83917   2.86081   2.92212   3.03563   3.09095
 Alpha virt. eigenvalues --    3.18977   3.32202   3.45152   3.70414   3.79156
 Alpha virt. eigenvalues --    3.79531   3.94996   4.12195   4.31022   9.75662
 Alpha virt. eigenvalues --   23.72745  23.84193  23.94544  24.00198  25.93330
 Alpha virt. eigenvalues --   25.96878  26.44792 215.74691
          Condensed to atoms (all electrons):
              1          2          3          4          5          6
     1  C    5.444203   0.137858  -0.009243   0.098287  -0.006609   0.372327
     2  C    0.137858   5.405521   0.004734  -0.091084  -0.016748  -0.046099
     3  C   -0.009243   0.004734   5.372021   0.444408  -0.034535   0.021948
     4  C    0.098287  -0.091084   0.444408   5.339317   0.374096  -0.010574
     5  H   -0.006609  -0.016748  -0.034535   0.374096   0.562216   0.001027
     6  H    0.372327  -0.046099   0.021948  -0.010574   0.001027   0.546288
     7  H    0.002796   0.013709  -0.017374   0.390546  -0.029003   0.000117
     8  H   -0.021284   0.005631   0.336965  -0.050414   0.014472  -0.001013
     9  H   -0.046554   0.473440  -0.126974   0.002111   0.011359  -0.003056
    10  H    0.393014  -0.013331  -0.043000  -0.002511   0.002190  -0.018290
    11  H    0.369644  -0.052032   0.021716   0.003407  -0.001319  -0.029285
    12  Cl  -0.061560   0.008074   0.008746   0.065752  -0.002287   0.012383
              7          8          9         10         11         12
     1  C    0.002796  -0.021284  -0.046554   0.393014   0.369644  -0.061560
     2  C    0.013709   0.005631   0.473440  -0.013331  -0.052032   0.008074
     3  C   -0.017374   0.336965  -0.126974  -0.043000   0.021716   0.008746
     4  C    0.390546  -0.050414   0.002111  -0.002511   0.003407   0.065752
     5  H   -0.029003   0.014472   0.011359   0.002190  -0.001319  -0.002287
     6  H    0.000117  -0.001013  -0.003056  -0.018290  -0.029285   0.012383
     7  H    0.526649  -0.016762  -0.002404  -0.000753   0.000476  -0.003703
     8  H   -0.016762   0.541147   0.005674   0.004035  -0.003064   0.013741
     9  H   -0.002404   0.005674   0.510344   0.008143  -0.011836  -0.046780
    10  H   -0.000753   0.004035   0.008143   0.539083  -0.033799   0.008966
    11  H    0.000476  -0.003064  -0.011836  -0.033799   0.580942   0.018701
    12  Cl  -0.003703   0.013741  -0.046780   0.008966   0.018701  17.037844
 Mulliken atomic charges:
              1
     1  C   -0.672880
     2  C    0.170327
     3  C    0.020590
     4  C   -0.563343
     5  H    0.125141
     6  H    0.154226
     7  H    0.135709
     8  H    0.170873
     9  H    0.226533
    10  H    0.156253
    11  H    0.136448
    12  Cl  -0.059877
 Sum of Mulliken atomic charges =   0.00000
 Mulliken charges with hydrogens summed into heavy atoms:
              1
     1  C   -0.225953
     2  C    0.396860
     3  C    0.191463
     4  C   -0.302493
    12  Cl  -0.059877
 Sum of Mulliken charges with hydrogens summed into heavy atoms =   0.00000
 Electronic spatial extent (au):  <R**2>=            631.0352
 Charge=              0.0000 electrons
 Dipole moment (field-independent basis, Debye):
    X=             -1.6550    Y=              1.5889    Z=             -0.2992  Tot=              2.3136
 Quadrupole moment (field-independent basis, Debye-Ang):
   XX=            -39.7597   YY=            -40.3594   ZZ=            -36.9521
   XY=              2.3997   XZ=             -0.2559   YZ=             -0.2909
 Traceless Quadrupole moment (field-independent basis, Debye-Ang):
   XX=             -0.7360   YY=             -1.3356   ZZ=              2.0716
   XY=              2.3997   XZ=             -0.2559   YZ=             -0.2909
 Octapole moment (field-independent basis, Debye-Ang**2):
  XXX=             -0.3455  YYY=              1.8789  ZZZ=             -0.5231  XYY=              5.0411
  XXY=             -4.7102  XXZ=              1.4124  XZZ=             -1.1582  YZZ=             -0.3770
  YYZ=             -0.1274  XYZ=             -0.0319
 Hexadecapole moment (field-independent basis, Debye-Ang**3):
 XXXX=           -497.2219 YYYY=           -279.1029 ZZZZ=            -81.4382 XXXY=              9.5598
 XXXZ=             -6.7025 YYYX=             -8.8631 YYYZ=             -2.1153 ZZZX=              0.3115
 ZZZY=              0.8959 XXYY=           -131.4843 XXZZ=            -96.0715 YYZZ=            -61.9236
 XXYZ=             -4.1348 YYXZ=              0.5516 ZZXY=              1.7925
 N-N= 2.110183540227D+02 E-N=-1.878619275657D+03  KE= 6.148522230541D+02
 No NMR shielding tensors so no spin-rotation constants.
 Leave Link  601 at Wed Jul 10 17:29:02 2013, MaxMem=  131072000 cpu:       0.2
 (Enter /cerebro/home/software/apps/g09/l9999.exe)
 AllDun Frequency-dependent properties on file 20721 Mask=       2 NFrqRd=     4 NDeriv=     1 LenFil=      42:
 Frequencies=    0.071980    0.077357    0.104503    0.128347
 Property number 2 -- FD Optical Rotation Tensor frequency  1    0.071980:
                 1             2             3 
      1   0.540885D+01 -0.537836D+00 -0.679580D+01
      2  -0.952455D+01 -0.529132D+01 -0.214687D+02
      3   0.258889D+02  0.123378D+02  0.155318D+01
 Property number 2 -- FD Optical Rotation Tensor frequency  2    0.077357:
                 1             2             3 
      1   0.550576D+01 -0.511551D+00 -0.677695D+01
      2  -0.972220D+01 -0.535280D+01 -0.215691D+02
      3   0.261764D+02  0.124754D+02  0.158666D+01
 Property number 2 -- FD Optical Rotation Tensor frequency  3    0.104503:
                 1             2             3 
      1   0.619563D+01 -0.316112D+00 -0.663680D+01
      2  -0.111013D+02 -0.576602D+01 -0.222324D+02
      3   0.282293D+02  0.134419D+02  0.182973D+01
 Property number 2 -- FD Optical Rotation Tensor frequency  4    0.128347:
                 1             2             3 
      1   0.723843D+01 -0.128362D-02 -0.641479D+01
      2  -0.130887D+02 -0.631888D+01 -0.230951D+02
      3   0.313613D+02  0.148654D+02  0.221090D+01
 1\1\GINC-COMPUTE-0-1\SP\RB3LYP\6-311++G(d,p)\C4H7Cl1\CRAWDAD\10-Jul-20
 13\0\\#P B3LYP/6-311++G** scf(conver=11) int=ultrafine polar=optrot cp
 hf(rdfreq,conver=11)\\(R)-3-chloro-1-butene tau=120\\0,1\C,0,0.4683522
 9,1.75383772,0.04012854\C,0,-0.00028969,0.34649294,-0.32452144\C,0,-1.
 16822965,-0.08314954,0.43880652\C,0,-2.36476969,-0.50930892,-0.1710563
 \H,0,-2.38752928,-0.53757211,-1.26325779\H,0,1.37344065,2.0238193,-0.5
 0643566\H,0,-3.19901986,-0.78972942,0.472343\H,0,-1.16160798,-0.073516
 27,1.53330237\H,0,-0.13790538,0.26501007,-1.40189374\H,0,0.67730961,1.
 83311519,1.10900953\H,0,-0.31904462,2.46997628,-0.21385238\Cl,0,1.3857
 3411,-0.83719938,0.02288722\\Version=EM64L-G09RevA.02\State=1-A\HF=-61
 6.8878284\RMSD=8.303e-12\Dipole=-0.6524963,0.6236677,-0.1177262\Quadru
 pole=-0.5550952,-0.9851088,1.540204,1.7850806,-0.1897964,-0.2167253\PG
 =C01 [X(C4H7Cl1)]\\@


 OUR LITTLE SYSTEMS HAVE THEIR DAY,    
   THEY HAVE THEIR DAY AND CEASE TO BE.
   THEY ARE BUT BROKEN LIGHTS OF THEE, 
 AND THOU, OH LORD, ART MORE THAN THEY.
          -------------------          
 LET KNOWLEDGE GROW FROM MORE TO MORE, 
   BUT MORE OF REVERENCE IN US DWELL.  
   THAT MIND AND SOUL, ACCORDING WELL, 
 MAY MAKE ONE MUSIC AS BEFORE.....     
          -------------------          
                    LORD TENNYSON      
 Job cpu time:  0 days  0 hours 38 minutes 42.2 seconds.
 File lengths (MBytes):  RWF=    120 Int=      0 D2E=      0 Chk=      2 Scr=      1
 Normal termination of Gaussian 09 at Wed Jul 10 17:29:02 2013.
