(R)-3-chloro-1-butene tau=120                                           
SP        RB3LYP                                                      6-311++G(d,p)       
Number of atoms                            I               12
Info1-9                                    I   N=           9
          26          26           0           0           0         110
           1          18        -502
Full Title                                 C   N=           3
(R)-3-chloro-1-butene tau=120       
Route                                      C   N=           7
#P B3LYP/6-311++G** scf(conver=11) int=ultrafine polar=optro
t cphf(rdfreq,conver=11)
Charge                                     I                0
Multiplicity                               I                1
Number of electrons                        I               48
Number of alpha electrons                  I               24
Number of beta electrons                   I               24
Number of basis functions                  I              167
Number of independent functions            I              167
Number of point charges in /Mol/           I                0
Number of translation vectors              I                0
Atomic numbers                             I   N=          12
           6           6           6           6           1           1
           1           1           1           1           1          17
Nuclear charges                            R   N=          12
  6.00000000E+00  6.00000000E+00  6.00000000E+00  6.00000000E+00  1.00000000E+00
  1.00000000E+00  1.00000000E+00  1.00000000E+00  1.00000000E+00  1.00000000E+00
  1.00000000E+00  1.70000000E+01
Current cartesian coordinates              R   N=          36
  8.91854076E-01  3.31207428E+00  7.51059026E-02  3.68752666E-04  6.54543429E-01
 -6.13982694E-01 -2.20850835E+00 -1.52479391E-01  8.28498100E-01 -4.47141709E+00
 -9.52800578E-01 -3.23975608E-01 -4.51454451E+00 -1.00611500E+00 -2.38793731E+00
  2.60334750E+00  3.81848114E+00 -9.57750749E-01 -6.04908970E+00 -1.47923019E+00
  8.91872863E-01 -2.19595498E+00 -1.34302871E-01  2.89679551E+00 -2.60027163E-01
  5.01138710E-01 -2.64992128E+00  1.28705659E+00  3.46101321E+00  2.09499824E+00
 -5.93113448E-01  4.66866792E+00 -4.04848479E-01  2.61462008E+00 -1.58809878E+00
  4.25245296E-02
Number of symbols in /Mol/                 I                0
Force Field                                I                0
Atom Types                                 C   N=          12
                                                            
                                                            
                        
Int Atom Types                             I   N=          12
           0           0           0           0           0           0
           0           0           0           0           0           0
MM charges                                 R   N=          12
  0.00000000E+00  0.00000000E+00  0.00000000E+00  0.00000000E+00  0.00000000E+00
  0.00000000E+00  0.00000000E+00  0.00000000E+00  0.00000000E+00  0.00000000E+00
  0.00000000E+00  0.00000000E+00
Integer atomic weights                     I   N=          12
          12          12          12          12           1           1
           1           1           1           1           1          35
Real atomic weights                        R   N=          12
  1.20000000E+01  1.20000000E+01  1.20000000E+01  1.20000000E+01  1.00782504E+00
  1.00782504E+00  1.00782504E+00  1.00782504E+00  1.00782504E+00  1.00782504E+00
  1.00782504E+00  3.49688527E+01
Atom fragment info                         I   N=          12
           0           0           0           0           0           0
           0           0           0           0           0           0
Atom residue num                           I   N=          12
           0           0           0           0           0           0
           0           0           0           0           0           0
Nuclear spins                              I   N=          12
           0           0           0           0           1           1
           1           1           1           1           1           3
Nuclear ZEff                               R   N=          12
 -3.60000000E+00 -3.60000000E+00 -3.60000000E+00 -3.60000000E+00 -1.00000000E+00
 -1.00000000E+00 -1.00000000E+00 -1.00000000E+00 -1.00000000E+00 -1.00000000E+00
 -1.00000000E+00 -1.42400000E+01
Nuclear ZNuc                               R   N=          12
  6.00000000E+00  6.00000000E+00  6.00000000E+00  6.00000000E+00  1.00000000E+00
  1.00000000E+00  1.00000000E+00  1.00000000E+00  1.00000000E+00  1.00000000E+00
  1.00000000E+00  1.70000000E+01
Nuclear QMom                               R   N=          12
  0.00000000E+00  0.00000000E+00  0.00000000E+00  0.00000000E+00  0.00000000E+00
  0.00000000E+00  0.00000000E+00  0.00000000E+00  0.00000000E+00  0.00000000E+00
  0.00000000E+00 -8.16500000E+00
Nuclear GFac                               R   N=          12
  0.00000000E+00  0.00000000E+00  0.00000000E+00  0.00000000E+00  2.79284600E+00
  2.79284600E+00  2.79284600E+00  2.79284600E+00  2.79284600E+00  2.79284600E+00
  2.79284600E+00  8.21874000E-01
MicOpt                                     I   N=          12
          -1          -1          -1          -1          -1          -1
          -1          -1          -1          -1          -1          -1
Number of residues                         I                0
Number of secondary structures             I                0
SymInf integers                            I   N=          26
           1           1           1           1           1           0
           0           0           0           0           0           0
           0           0           0           0           0           0
           0           0           0           0           0           0
           0           0
RotTr to input orientation                 R   N=          12
  9.99997554E-01  2.21188254E-03  0.00000000E+00 -2.21188254E-03  9.99997554E-01
  0.00000000E+00  0.00000000E+00  0.00000000E+00  1.00000000E+00  5.31586654E-04
  2.34120533E-04  7.26048134E-04
Number of contracted shells                I               72
Number of primitive shells                 I              126
Pure/Cartesian d shells                    I                0
Pure/Cartesian f shells                    I                0
Highest angular momentum                   I                2
Largest degree of contraction              I                6
Shell types                                I   N=          72
           0          -1          -1          -1          -1          -2
           0          -1          -1          -1          -1          -2
           0          -1          -1          -1          -1          -2
           0          -1          -1          -1          -1          -2
           0           0           0           0           1           0
           0           0           0           1           0           0
           0           0           1           0           0           0
           0           1           0           0           0           0
           1           0           0           0           0           1
           0           0           0           0           1           0
           0           0           0           0           0          -1
           1           1           1           1           1          -2
Number of primitives per shell             I   N=          72
           6           3           1           1           1           1
           6           3           1           1           1           1
           6           3           1           1           1           1
           6           3           1           1           1           1
           3           1           1           1           1           3
           1           1           1           1           3           1
           1           1           1           3           1           1
           1           1           3           1           1           1
           1           3           1           1           1           1
           3           1           1           1           1           6
           3           1           1           1           1           1
           5           2           1           1           1           1
Shell to atom map                          I   N=          72
           1           1           1           1           1           1
           2           2           2           2           2           2
           3           3           3           3           3           3
           4           4           4           4           4           4
           5           5           5           5           5           6
           6           6           6           6           7           7
           7           7           7           8           8           8
           8           8           9           9           9           9
           9          10          10          10          10          10
          11          11          11          11          11          12
          12          12          12          12          12          12
          12          12          12          12          12          12
Primitive exponents                        R   N=         126
  4.56324000E+03  6.82024000E+02  1.54973000E+02  4.44553000E+01  1.30290000E+01
  1.82773000E+00  2.09642000E+01  4.80331000E+00  1.45933000E+00  4.83456000E-01
  1.45585000E-01  4.38000000E-02  6.26000000E-01  4.56324000E+03  6.82024000E+02
  1.54973000E+02  4.44553000E+01  1.30290000E+01  1.82773000E+00  2.09642000E+01
  4.80331000E+00  1.45933000E+00  4.83456000E-01  1.45585000E-01  4.38000000E-02
  6.26000000E-01  4.56324000E+03  6.82024000E+02  1.54973000E+02  4.44553000E+01
  1.30290000E+01  1.82773000E+00  2.09642000E+01  4.80331000E+00  1.45933000E+00
  4.83456000E-01  1.45585000E-01  4.38000000E-02  6.26000000E-01  4.56324000E+03
  6.82024000E+02  1.54973000E+02  4.44553000E+01  1.30290000E+01  1.82773000E+00
  2.09642000E+01  4.80331000E+00  1.45933000E+00  4.83456000E-01  1.45585000E-01
  4.38000000E-02  6.26000000E-01  3.38650000E+01  5.09479000E+00  1.15879000E+00
  3.25840000E-01  1.02741000E-01  3.60000000E-02  7.50000000E-01  3.38650000E+01
  5.09479000E+00  1.15879000E+00  3.25840000E-01  1.02741000E-01  3.60000000E-02
  7.50000000E-01  3.38650000E+01  5.09479000E+00  1.15879000E+00  3.25840000E-01
  1.02741000E-01  3.60000000E-02  7.50000000E-01  3.38650000E+01  5.09479000E+00
  1.15879000E+00  3.25840000E-01  1.02741000E-01  3.60000000E-02  7.50000000E-01
  3.38650000E+01  5.09479000E+00  1.15879000E+00  3.25840000E-01  1.02741000E-01
  3.60000000E-02  7.50000000E-01  3.38650000E+01  5.09479000E+00  1.15879000E+00
  3.25840000E-01  1.02741000E-01  3.60000000E-02  7.50000000E-01  3.38650000E+01
  5.09479000E+00  1.15879000E+00  3.25840000E-01  1.02741000E-01  3.60000000E-02
  7.50000000E-01  1.05819000E+05  1.58720000E+04  3.61965000E+03  1.03080000E+03
  3.39908000E+02  1.24538000E+02  1.24538000E+02  4.95135000E+01  2.08056000E+01
  6.58346000E+00  2.56468000E+00  5.59763000E-01  1.83273000E-01  4.83000000E-02
  5.89776000E+02  1.39849000E+02  4.51413000E+01  1.68733000E+01  2.77152000E+00
  6.74110000E+00  2.77152000E+00  1.02387000E+00  3.81368000E-01  1.09437000E-01
  7.50000000E-01
Contraction coefficients                   R   N=         126
  1.96665025E-03  1.52306019E-02  7.61269097E-02  2.60801033E-01  6.16462078E-01
  2.21006028E-01  1.14660081E-01  9.19999648E-01 -3.03068213E-03  1.00000000E+00
  1.00000000E+00  1.00000000E+00  1.00000000E+00  1.96665025E-03  1.52306019E-02
  7.61269097E-02  2.60801033E-01  6.16462078E-01  2.21006028E-01  1.14660081E-01
  9.19999648E-01 -3.03068213E-03  1.00000000E+00  1.00000000E+00  1.00000000E+00
  1.00000000E+00  1.96665025E-03  1.52306019E-02  7.61269097E-02  2.60801033E-01
  6.16462078E-01  2.21006028E-01  1.14660081E-01  9.19999648E-01 -3.03068213E-03
  1.00000000E+00  1.00000000E+00  1.00000000E+00  1.00000000E+00  1.96665025E-03
  1.52306019E-02  7.61269097E-02  2.60801033E-01  6.16462078E-01  2.21006028E-01
  1.14660081E-01  9.19999648E-01 -3.03068213E-03  1.00000000E+00  1.00000000E+00
  1.00000000E+00  1.00000000E+00  2.54938145E-02  1.90373109E-01  8.52161486E-01
  1.00000000E+00  1.00000000E+00  1.00000000E+00  1.00000000E+00  2.54938145E-02
  1.90373109E-01  8.52161486E-01  1.00000000E+00  1.00000000E+00  1.00000000E+00
  1.00000000E+00  2.54938145E-02  1.90373109E-01  8.52161486E-01  1.00000000E+00
  1.00000000E+00  1.00000000E+00  1.00000000E+00  2.54938145E-02  1.90373109E-01
  8.52161486E-01  1.00000000E+00  1.00000000E+00  1.00000000E+00  1.00000000E+00
  2.54938145E-02  1.90373109E-01  8.52161486E-01  1.00000000E+00  1.00000000E+00
  1.00000000E+00  1.00000000E+00  2.54938145E-02  1.90373109E-01  8.52161486E-01
  1.00000000E+00  1.00000000E+00  1.00000000E+00  1.00000000E+00  2.54938145E-02
  1.90373109E-01  8.52161486E-01  1.00000000E+00  1.00000000E+00  1.00000000E+00
  1.00000000E+00  7.38000247E-04  5.71800191E-03  2.94950099E-02  1.17286039E-01
  3.62949121E-01  5.84149195E-01  1.34176973E-01  6.24249876E-01  2.91755942E-01
  1.00000000E+00  1.00000000E+00  1.00000000E+00  1.00000000E+00  1.00000000E+00
  3.66556935E-03  2.83679194E-02  1.24756603E-01  3.39654631E-01  7.47585963E-01
 -1.57224381E+00  9.92388882E-01  1.00000000E+00  1.00000000E+00  1.00000000E+00
  1.00000000E+00
P(S=P) Contraction coefficients            R   N=         126
  0.00000000E+00  0.00000000E+00  0.00000000E+00  0.00000000E+00  0.00000000E+00
  0.00000000E+00  4.02486927E-02  2.37593957E-01  8.15853851E-01  1.00000000E+00
  1.00000000E+00  1.00000000E+00  0.00000000E+00  0.00000000E+00  0.00000000E+00
  0.00000000E+00  0.00000000E+00  0.00000000E+00  0.00000000E+00  4.02486927E-02
  2.37593957E-01  8.15853851E-01  1.00000000E+00  1.00000000E+00  1.00000000E+00
  0.00000000E+00  0.00000000E+00  0.00000000E+00  0.00000000E+00  0.00000000E+00
  0.00000000E+00  0.00000000E+00  4.02486927E-02  2.37593957E-01  8.15853851E-01
  1.00000000E+00  1.00000000E+00  1.00000000E+00  0.00000000E+00  0.00000000E+00
  0.00000000E+00  0.00000000E+00  0.00000000E+00  0.00000000E+00  0.00000000E+00
  4.02486927E-02  2.37593957E-01  8.15853851E-01  1.00000000E+00  1.00000000E+00
  1.00000000E+00  0.00000000E+00  0.00000000E+00  0.00000000E+00  0.00000000E+00
  0.00000000E+00  0.00000000E+00  0.00000000E+00  0.00000000E+00  0.00000000E+00
  0.00000000E+00  0.00000000E+00  0.00000000E+00  0.00000000E+00  0.00000000E+00
  0.00000000E+00  0.00000000E+00  0.00000000E+00  0.00000000E+00  0.00000000E+00
  0.00000000E+00  0.00000000E+00  0.00000000E+00  0.00000000E+00  0.00000000E+00
  0.00000000E+00  0.00000000E+00  0.00000000E+00  0.00000000E+00  0.00000000E+00
  0.00000000E+00  0.00000000E+00  0.00000000E+00  0.00000000E+00  0.00000000E+00
  0.00000000E+00  0.00000000E+00  0.00000000E+00  0.00000000E+00  0.00000000E+00
  0.00000000E+00  0.00000000E+00  0.00000000E+00  0.00000000E+00  0.00000000E+00
  0.00000000E+00  0.00000000E+00  0.00000000E+00  0.00000000E+00  0.00000000E+00
  0.00000000E+00  0.00000000E+00  0.00000000E+00  0.00000000E+00  0.00000000E+00
  0.00000000E+00  0.00000000E+00  0.00000000E+00  0.00000000E+00  0.00000000E+00
  0.00000000E+00  0.00000000E+00  0.00000000E+00  0.00000000E+00  1.00000000E+00
  0.00000000E+00  0.00000000E+00  0.00000000E+00  0.00000000E+00  0.00000000E+00
  0.00000000E+00  0.00000000E+00  0.00000000E+00  0.00000000E+00  0.00000000E+00
  0.00000000E+00
Coordinates of each shell                  R   N=         216
  8.91854076E-01  3.31207428E+00  7.51059026E-02  8.91854076E-01  3.31207428E+00
  7.51059026E-02  8.91854076E-01  3.31207428E+00  7.51059026E-02  8.91854076E-01
  3.31207428E+00  7.51059026E-02  8.91854076E-01  3.31207428E+00  7.51059026E-02
  8.91854076E-01  3.31207428E+00  7.51059026E-02  3.68752666E-04  6.54543429E-01
 -6.13982694E-01  3.68752666E-04  6.54543429E-01 -6.13982694E-01  3.68752666E-04
  6.54543429E-01 -6.13982694E-01  3.68752666E-04  6.54543429E-01 -6.13982694E-01
  3.68752666E-04  6.54543429E-01 -6.13982694E-01  3.68752666E-04  6.54543429E-01
 -6.13982694E-01 -2.20850835E+00 -1.52479391E-01  8.28498100E-01 -2.20850835E+00
 -1.52479391E-01  8.28498100E-01 -2.20850835E+00 -1.52479391E-01  8.28498100E-01
 -2.20850835E+00 -1.52479391E-01  8.28498100E-01 -2.20850835E+00 -1.52479391E-01
  8.28498100E-01 -2.20850835E+00 -1.52479391E-01  8.28498100E-01 -4.47141709E+00
 -9.52800578E-01 -3.23975608E-01 -4.47141709E+00 -9.52800578E-01 -3.23975608E-01
 -4.47141709E+00 -9.52800578E-01 -3.23975608E-01 -4.47141709E+00 -9.52800578E-01
 -3.23975608E-01 -4.47141709E+00 -9.52800578E-01 -3.23975608E-01 -4.47141709E+00
 -9.52800578E-01 -3.23975608E-01 -4.51454451E+00 -1.00611500E+00 -2.38793731E+00
 -4.51454451E+00 -1.00611500E+00 -2.38793731E+00 -4.51454451E+00 -1.00611500E+00
 -2.38793731E+00 -4.51454451E+00 -1.00611500E+00 -2.38793731E+00 -4.51454451E+00
 -1.00611500E+00 -2.38793731E+00  2.60334750E+00  3.81848114E+00 -9.57750749E-01
  2.60334750E+00  3.81848114E+00 -9.57750749E-01  2.60334750E+00  3.81848114E+00
 -9.57750749E-01  2.60334750E+00  3.81848114E+00 -9.57750749E-01  2.60334750E+00
  3.81848114E+00 -9.57750749E-01 -6.04908970E+00 -1.47923019E+00  8.91872863E-01
 -6.04908970E+00 -1.47923019E+00  8.91872863E-01 -6.04908970E+00 -1.47923019E+00
  8.91872863E-01 -6.04908970E+00 -1.47923019E+00  8.91872863E-01 -6.04908970E+00
 -1.47923019E+00  8.91872863E-01 -2.19595498E+00 -1.34302871E-01  2.89679551E+00
 -2.19595498E+00 -1.34302871E-01  2.89679551E+00 -2.19595498E+00 -1.34302871E-01
  2.89679551E+00 -2.19595498E+00 -1.34302871E-01  2.89679551E+00 -2.19595498E+00
 -1.34302871E-01  2.89679551E+00 -2.60027163E-01  5.01138710E-01 -2.64992128E+00
 -2.60027163E-01  5.01138710E-01 -2.64992128E+00 -2.60027163E-01  5.01138710E-01
 -2.64992128E+00 -2.60027163E-01  5.01138710E-01 -2.64992128E+00 -2.60027163E-01
  5.01138710E-01 -2.64992128E+00  1.28705659E+00  3.46101321E+00  2.09499824E+00
  1.28705659E+00  3.46101321E+00  2.09499824E+00  1.28705659E+00  3.46101321E+00
  2.09499824E+00  1.28705659E+00  3.46101321E+00  2.09499824E+00  1.28705659E+00
  3.46101321E+00  2.09499824E+00 -5.93113448E-01  4.66866792E+00 -4.04848479E-01
 -5.93113448E-01  4.66866792E+00 -4.04848479E-01 -5.93113448E-01  4.66866792E+00
 -4.04848479E-01 -5.93113448E-01  4.66866792E+00 -4.04848479E-01 -5.93113448E-01
  4.66866792E+00 -4.04848479E-01  2.61462008E+00 -1.58809878E+00  4.25245296E-02
  2.61462008E+00 -1.58809878E+00  4.25245296E-02  2.61462008E+00 -1.58809878E+00
  4.25245296E-02  2.61462008E+00 -1.58809878E+00  4.25245296E-02  2.61462008E+00
 -1.58809878E+00  4.25245296E-02  2.61462008E+00 -1.58809878E+00  4.25245296E-02
  2.61462008E+00 -1.58809878E+00  4.25245296E-02  2.61462008E+00 -1.58809878E+00
  4.25245296E-02  2.61462008E+00 -1.58809878E+00  4.25245296E-02  2.61462008E+00
 -1.58809878E+00  4.25245296E-02  2.61462008E+00 -1.58809878E+00  4.25245296E-02
  2.61462008E+00 -1.58809878E+00  4.25245296E-02  2.61462008E+00 -1.58809878E+00
  4.25245296E-02
Constraint Structure                       R   N=          36
  8.91854076E-01  3.31207428E+00  7.51059026E-02  3.68752666E-04  6.54543429E-01
 -6.13982694E-01 -2.20850835E+00 -1.52479391E-01  8.28498100E-01 -4.47141709E+00
 -9.52800578E-01 -3.23975608E-01 -4.51454451E+00 -1.00611500E+00 -2.38793731E+00
  2.60334750E+00  3.81848114E+00 -9.57750749E-01 -6.04908970E+00 -1.47923019E+00
  8.91872863E-01 -2.19595498E+00 -1.34302871E-01  2.89679551E+00 -2.60027163E-01
  5.01138710E-01 -2.64992128E+00  1.28705659E+00  3.46101321E+00  2.09499824E+00
 -5.93113448E-01  4.66866792E+00 -4.04848479E-01  2.61462008E+00 -1.58809878E+00
  4.25245296E-02
Num ILSW                                   I              100
ILSW                                       I   N=         100
           0           0           0           0           2           0
           0           0           0           0         402          -1
           5           0           0           0           0           0
           0           0           0           0           0           0
           1           0           0           0           0           0
           0           0      100000           0          -1           0
           0           0           0           0           0           0
           0           0           0           1           0           0
           0           0           1           0           0           0
           0           0           4          41           0           0
           0           0           5           0           0           0
           0           0           0           0           0           0
           0           0           0           0           0           0
           0           0           0           0           0           0
           0           0           0           0           0           0
           0           0           0           0           0           0
           0           0           0           0
Num RLSW                                   I               41
RLSW                                       R   N=          41
  8.00000000E-01  7.20000000E-01  1.00000000E+00  8.10000000E-01  2.00000000E-01
  0.00000000E+00  0.00000000E+00  1.00000000E+00  0.00000000E+00  0.00000000E+00
  0.00000000E+00  0.00000000E+00  1.00000000E+00  0.00000000E+00  0.00000000E+00
  0.00000000E+00  0.00000000E+00  1.00000000E+00  0.00000000E+00  0.00000000E+00
  0.00000000E+00  0.00000000E+00  1.00000000E+00  0.00000000E+00  0.00000000E+00
  0.00000000E+00  0.00000000E+00  1.00000000E+00  0.00000000E+00  0.00000000E+00
  0.00000000E+00  0.00000000E+00  0.00000000E+00  0.00000000E+00  0.00000000E+00
  0.00000000E+00  0.00000000E+00  0.00000000E+00  1.00000000E+00  1.00000000E+00
  0.00000000E+00
MxBond                                     I                4
NBond                                      I   N=          12
           4           4           3           3           1           1
           1           1           1           1           1           1
IBond                                      I   N=          48
           2           6          10          11           1           3
           9          12           2           4           8           0
           3           5           7           0           4           0
           0           0           1           0           0           0
           4           0           0           0           3           0
           0           0           2           0           0           0
           1           0           0           0           1           0
           0           0           2           0           0           0
RBond                                      R   N=          48
  1.00000000E+00  1.00000000E+00  1.00000000E+00  1.00000000E+00  1.00000000E+00
  1.00000000E+00  1.00000000E+00  1.00000000E+00  1.00000000E+00  1.50000000E+00
  1.00000000E+00  0.00000000E+00  1.50000000E+00  1.00000000E+00  1.00000000E+00
  0.00000000E+00  1.00000000E+00  0.00000000E+00  0.00000000E+00  0.00000000E+00
  1.00000000E+00  0.00000000E+00  0.00000000E+00  0.00000000E+00  1.00000000E+00
  0.00000000E+00  0.00000000E+00  0.00000000E+00  1.00000000E+00  0.00000000E+00
  0.00000000E+00  0.00000000E+00  1.00000000E+00  0.00000000E+00  0.00000000E+00
  0.00000000E+00  1.00000000E+00  0.00000000E+00  0.00000000E+00  0.00000000E+00
  1.00000000E+00  0.00000000E+00  0.00000000E+00  0.00000000E+00  1.00000000E+00
  0.00000000E+00  0.00000000E+00  0.00000000E+00
Virial Ratio                               R      2.003310722839497E+00
SCF Energy                                 R     -6.168878283518583E+02
Total Energy                               R     -6.168878283518583E+02
RMS Density                                R      8.303202003755014E-12
Nuclear derivative order                   I                0
External E-field                           R   N=          35
  0.00000000E+00  0.00000000E+00  0.00000000E+00  0.00000000E+00  0.00000000E+00
  0.00000000E+00  0.00000000E+00  0.00000000E+00  0.00000000E+00  0.00000000E+00
  0.00000000E+00  0.00000000E+00  0.00000000E+00  0.00000000E+00  0.00000000E+00
  0.00000000E+00  0.00000000E+00  0.00000000E+00  0.00000000E+00  0.00000000E+00
  0.00000000E+00  0.00000000E+00  0.00000000E+00  0.00000000E+00  0.00000000E+00
  0.00000000E+00  0.00000000E+00  0.00000000E+00  0.00000000E+00  0.00000000E+00
  0.00000000E+00  0.00000000E+00  0.00000000E+00  0.00000000E+00  0.00000000E+00
IOpCl                                      I                0
IROHF                                      I                0
Alpha Orbital Energies                     R   N=         167
 -1.01533766E+02 -1.02481907E+01 -1.02021962E+01 -1.01952468E+01 -1.01815284E+01
 -9.44827631E+00 -7.21260493E+00 -7.20319741E+00 -7.20301175E+00 -8.69314380E-01
 -7.79690707E-01 -7.37948103E-01 -6.42053909E-01 -5.78413815E-01 -4.83460365E-01
 -4.75306321E-01 -4.44221615E-01 -4.13437366E-01 -4.00656847E-01 -3.80912403E-01
 -3.69956211E-01 -3.05860114E-01 -2.98218459E-01 -2.70052398E-01 -4.43624896E-02
 -7.93420619E-03  5.60004242E-03  6.43281041E-03  2.04859673E-02  2.85358377E-02
  3.80969325E-02  4.10757313E-02  6.31699115E-02  6.37357124E-02  7.27381598E-02
  8.19806416E-02  8.55293878E-02  9.80132957E-02  1.10277603E-01  1.15914041E-01
  1.17560049E-01  1.20869581E-01  1.29133287E-01  1.30798390E-01  1.35472499E-01
  1.41314495E-01  1.49615135E-01  1.56299630E-01  1.60650701E-01  1.62841099E-01
  1.71819243E-01  1.84761204E-01  1.90268222E-01  2.14320690E-01  2.18673962E-01
  2.24103287E-01  2.43703503E-01  2.63349149E-01  2.69674364E-01  2.91428066E-01
  3.42350989E-01  3.54067447E-01  3.65743743E-01  4.26595704E-01  4.30242285E-01
  4.47356142E-01  4.56626502E-01  4.77658415E-01  4.89948223E-01  4.95119509E-01
  5.16739246E-01  5.27706002E-01  5.69212511E-01  5.90092165E-01  5.97809284E-01
  6.20529052E-01  6.33668827E-01  6.50121001E-01  6.54790110E-01  6.63597803E-01
  6.93201486E-01  7.04972107E-01  7.19220341E-01  7.36824987E-01  7.88017662E-01
  8.08358938E-01  8.26318022E-01  8.55476631E-01  8.91447915E-01  8.97935552E-01
  9.40419805E-01  9.61467089E-01  1.00322439E+00  1.02539374E+00  1.05814331E+00
  1.07891310E+00  1.12016794E+00  1.16656359E+00  1.20054312E+00  1.29368058E+00
  1.36020402E+00  1.39977237E+00  1.45246880E+00  1.47179007E+00  1.50540883E+00
  1.53146584E+00  1.55754978E+00  1.58090152E+00  1.59365529E+00  1.62038654E+00
  1.65240552E+00  1.68175020E+00  1.69422450E+00  1.73077510E+00  1.77338683E+00
  1.79090655E+00  1.87511767E+00  1.88675747E+00  1.93284289E+00  1.96923367E+00
  1.99240972E+00  2.06148258E+00  2.09542730E+00  2.10698303E+00  2.18482450E+00
  2.19779279E+00  2.25290457E+00  2.28368013E+00  2.30136352E+00  2.34448167E+00
  2.37496398E+00  2.44672830E+00  2.46259492E+00  2.50661974E+00  2.51956919E+00
  2.56481512E+00  2.57285636E+00  2.59246724E+00  2.60172221E+00  2.64233404E+00
  2.70143019E+00  2.73041566E+00  2.74213976E+00  2.77741821E+00  2.83917360E+00
  2.86080571E+00  2.92211991E+00  3.03563381E+00  3.09095422E+00  3.18977024E+00
  3.32202460E+00  3.45151785E+00  3.70413557E+00  3.79155965E+00  3.79531375E+00
  3.94996303E+00  4.12195074E+00  4.31021819E+00  9.75661849E+00  2.37274511E+01
  2.38419288E+01  2.39454386E+01  2.40019823E+01  2.59333032E+01  2.59687836E+01
  2.64479176E+01  2.15746905E+02
Alpha MO coefficients                      R   N=       27889
  2.13057371E-07 -4.74868563E-07 -2.78136618E-06 -2.03334188E-06 -1.28859837E-06
  1.01428365E-06  2.00856387E-05  1.48743494E-05  9.41279583E-06  3.69982104E-06
  3.39035562E-05  3.67045564E-05  2.43906713E-05 -1.67982916E-03 -1.59372328E-04
  5.11453582E-04  3.56296992E-05  7.60493271E-06 -3.00888069E-06 -4.62542182E-06
  1.29759393E-05  2.50767008E-07  1.49043572E-06 -3.11778848E-06  1.20634399E-05
 -1.17420310E-05  4.78334614E-06 -1.53061844E-05 -1.40555488E-05  1.84158678E-05
 -1.65871726E-05  1.62615464E-04  1.39552685E-04 -1.11330208E-04 -3.81576967E-06
  3.95530656E-03 -4.69865505E-04  4.48951981E-04  8.82430365E-04  9.56861843E-06
 -2.97938999E-06  2.46700239E-06 -2.91776145E-06  7.17287842E-06 -7.89912470E-07
  2.24628571E-06  3.63666717E-06 -2.18066285E-06 -4.03076012E-06 -1.09580152E-05
 -2.38482360E-05  8.86076309E-06  2.44217124E-05  1.75374188E-05  1.45414114E-05
 -1.12312848E-05 -7.75207453E-05 -1.61483189E-03 -1.15258021E-03 -3.64694464E-04
 -7.68743872E-05  5.56763927E-06  4.11471684E-06 -6.29506260E-06  5.94250367E-07
 -5.71701965E-06  3.77129263E-07 -1.11251505E-06 -2.36229825E-06  4.53218586E-07
  8.91103472E-07  1.05599199E-05  1.08804083E-05 -9.71886212E-07  1.15267146E-06
 -5.81605145E-05 -9.33710515E-05 -2.30928984E-05  7.47623599E-05 -1.36362489E-03
 -3.17652033E-04 -1.67512897E-04 -5.75426459E-05 -5.39941710E-06 -9.19539905E-07
 -2.90950715E-06 -2.15507693E-06 -1.25881497E-06 -3.47836346E-06  3.93725859E-05
  7.53818390E-05  7.82772597E-05  5.63545245E-06 -1.64394533E-07  7.32930695E-06
  1.20940774E-05 -8.17272379E-05  7.60128688E-05  2.29998172E-04  8.15230091E-06
  1.32310756E-05 -1.07545246E-05  2.58130856E-06 -2.21893063E-05 -6.74702073E-05
 -1.57502741E-04 -4.10878891E-07  4.45124848E-08  1.34103462E-06  4.89438636E-06
 -2.50173230E-05  7.22425265E-05  1.62741725E-04 -1.06210233E-05  2.10427532E-06
  1.13804643E-05 -1.71518440E-06 -5.57685628E-05 -1.25743215E-04  1.27133689E-04
 -6.25584507E-06  1.22309020E-06 -1.46226783E-05  1.01228281E-05 -6.37477142E-05
 -2.15679227E-05  8.06707626E-05 -4.29706710E-06  1.23498292E-05  1.53340651E-05
 -7.65963320E-06  3.83437960E-05 -1.46242770E-04 -3.17290951E-04  4.61363662E-07
 -4.89859393E-06 -9.30510064E-07  4.11609590E-01  6.54076168E-01  1.50041977E-02