 Entering Gaussian System, Link 0=g09
 Input=input.dat
 Output=output.dat
 Initial command:
 /cerebro/home/software/apps/g09/l1.exe /scratch/crawdad/Gau-28327.inp -scrdir=/scratch/crawdad/
 Entering Link 1 = /cerebro/home/software/apps/g09/l1.exe PID=     28328.
  
 Copyright (c) 1988,1990,1992,1993,1995,1998,2003,2009, Gaussian, Inc.
                  All Rights Reserved.
  
 This is part of the Gaussian(R) 09 program.  It is based on
 the Gaussian(R) 03 system (copyright 2003, Gaussian, Inc.),
 the Gaussian(R) 98 system (copyright 1998, Gaussian, Inc.),
 the Gaussian(R) 94 system (copyright 1995, Gaussian, Inc.),
 the Gaussian 92(TM) system (copyright 1992, Gaussian, Inc.),
 the Gaussian 90(TM) system (copyright 1990, Gaussian, Inc.),
 the Gaussian 88(TM) system (copyright 1988, Gaussian, Inc.),
 the Gaussian 86(TM) system (copyright 1986, Carnegie Mellon
 University), and the Gaussian 82(TM) system (copyright 1983,
 Carnegie Mellon University). Gaussian is a federally registered
 trademark of Gaussian, Inc.
  
 This software contains proprietary and confidential information,
 including trade secrets, belonging to Gaussian, Inc.
  
 This software is provided under written license and may be
 used, copied, transmitted, or stored only in accord with that
 written license.
  
 The following legend is applicable only to US Government
 contracts under FAR:
  
                    RESTRICTED RIGHTS LEGEND
  
 Use, reproduction and disclosure by the US Government is
 subject to restrictions as set forth in subparagraphs (a)
 and (c) of the Commercial Computer Software - Restricted
 Rights clause in FAR 52.227-19.
  
 Gaussian, Inc.
 340 Quinnipiac St., Bldg. 40, Wallingford CT 06492
  
  
 ---------------------------------------------------------------
 Warning -- This program may not be used in any manner that
 competes with the business of Gaussian, Inc. or will provide
 assistance to any competitor of Gaussian, Inc.  The licensee
 of this program is prohibited from giving any competitor of
 Gaussian, Inc. access to this program.  By using this program,
 the user acknowledges that Gaussian, Inc. is engaged in the
 business of creating and licensing software in the field of
 computational chemistry and represents and warrants to the
 licensee that it is not a competitor of Gaussian, Inc. and that
 it will not use this program in any manner prohibited above.
 ---------------------------------------------------------------
  

 Cite this work as:
 Gaussian 09, Revision A.02,
 M. J. Frisch, G. W. Trucks, H. B. Schlegel, G. E. Scuseria, 
 M. A. Robb, J. R. Cheeseman, G. Scalmani, V. Barone, B. Mennucci, 
 G. A. Petersson, H. Nakatsuji, M. Caricato, X. Li, H. P. Hratchian, 
 A. F. Izmaylov, J. Bloino, G. Zheng, J. L. Sonnenberg, M. Hada, 
 M. Ehara, K. Toyota, R. Fukuda, J. Hasegawa, M. Ishida, T. Nakajima, 
 Y. Honda, O. Kitao, H. Nakai, T. Vreven, J. A. Montgomery, Jr., 
 J. E. Peralta, F. Ogliaro, M. Bearpark, J. J. Heyd, E. Brothers, 
 K. N. Kudin, V. N. Staroverov, R. Kobayashi, J. Normand, 
 K. Raghavachari, A. Rendell, J. C. Burant, S. S. Iyengar, J. Tomasi, 
 M. Cossi, N. Rega, J. M. Millam, M. Klene, J. E. Knox, J. B. Cross, 
 V. Bakken, C. Adamo, J. Jaramillo, R. Gomperts, R. E. Stratmann, 
 O. Yazyev, A. J. Austin, R. Cammi, C. Pomelli, J. W. Ochterski, 
 R. L. Martin, K. Morokuma, V. G. Zakrzewski, G. A. Voth, 
 P. Salvador, J. J. Dannenberg, S. Dapprich, A. D. Daniels, 
 O. Farkas, J. B. Foresman, J. V. Ortiz, J. Cioslowski, 
 and D. J. Fox, Gaussian, Inc., Wallingford CT, 2009.
 
 ******************************************
 Gaussian 09:  EM64L-G09RevA.02 11-Jun-2009
                10-Jul-2013 
 ******************************************
 %chk=vibave
 %mem=1000mb
 %nproc=1
 Will use up to    1 processors via shared memory.
 ----------------------------------------------------------------------
 #P B3LYP/6-311++G** scf(conver=11) int=ultrafine polar=optrot cphf(rdf
 req,conver=11)
 ----------------------------------------------------------------------
 1/38=1,83=21/1;
 2/12=2,17=6,18=5,40=1/2;
 3/5=4,6=6,7=1111,11=2,16=1,25=1,30=1,36=2,74=-5,75=-5/1,2,3;
 4//1;
 5/5=2,6=11,38=5,96=-2,98=1/2;
 8/6=4,10=90,11=11/1;
 10/6=1,7=11,13=10,46=8,60=-2,72=3/2;
 6/7=2,8=2,9=2,10=2,28=1/1;
 99/5=1,9=1/99;
 Leave Link    1 at Wed Jul 10 16:50:08 2013, MaxMem=  131072000 cpu:       0.1
 (Enter /cerebro/home/software/apps/g09/l101.exe)
 -----------------------------
 (R)-3-chloro-1-butene tau=120
 -----------------------------
 Symbolic Z-matrix:
 Charge =  0 Multiplicity = 1
 C                     0.46915   1.75362   0.04503 
 C                     0.00739   0.35491  -0.3291 
 C                    -1.20404  -0.09644   0.41739 
 C                    -2.32986  -0.49683  -0.14499 
 H                    -2.38969  -0.53973  -1.22869 
 H                     1.36561   2.01351  -0.52041 
 H                    -3.20378  -0.78909   0.42371 
 H                    -1.21381  -0.09456   1.50797 
 H                    -0.16726   0.21564  -1.39683 
 H                     0.67826   1.8389    1.11289 
 H                    -0.3195    2.46288  -0.22502 
 Cl                    1.38589  -0.83733   0.02278 
 
 NAtoms=     12 NQM=     12 NQMF=      0 NMic=      0 NMicF=      0 NTot=     12.
                    Isotopes and Nuclear Properties:
 (Nuclear quadrupole moments (NQMom) in fm**2, nuclear magnetic moments (NMagM)
  in nuclear magnetons)

  Atom         1           2           3           4           5           6           7           8           9          10
 IAtWgt=          12          12          12          12           1           1           1           1           1           1
 AtmWgt=  12.0000000  12.0000000  12.0000000  12.0000000   1.0078250   1.0078250   1.0078250   1.0078250   1.0078250   1.0078250
 NucSpn=           0           0           0           0           1           1           1           1           1           1
 AtZEff=   0.0000000   0.0000000   0.0000000   0.0000000   0.0000000   0.0000000   0.0000000   0.0000000   0.0000000   0.0000000
 NQMom=    0.0000000   0.0000000   0.0000000   0.0000000   0.0000000   0.0000000   0.0000000   0.0000000   0.0000000   0.0000000
 NMagM=    0.0000000   0.0000000   0.0000000   0.0000000   2.7928460   2.7928460   2.7928460   2.7928460   2.7928460   2.7928460

  Atom        11          12
 IAtWgt=           1          35
 AtmWgt=   1.0078250  34.9688527
 NucSpn=           1           3
 AtZEff=   0.0000000   0.0000000
 NQMom=    0.0000000  -8.1650000
 NMagM=    2.7928460   0.8218740
 Using perturbation frequencies:    0.071980    0.077357    0.104503    0.128347
 Leave Link  101 at Wed Jul 10 16:50:09 2013, MaxMem=  131072000 cpu:       0.1
 (Enter /cerebro/home/software/apps/g09/l202.exe)
                          Input orientation:                          
 ---------------------------------------------------------------------
 Center     Atomic      Atomic             Coordinates (Angstroms)
 Number     Number       Type             X           Y           Z
 ---------------------------------------------------------------------
      1          6           0        0.469154    1.753622    0.045032
      2          6           0        0.007394    0.354909   -0.329100
      3          6           0       -1.204038   -0.096436    0.417386
      4          6           0       -2.329863   -0.496825   -0.144988
      5          1           0       -2.389694   -0.539733   -1.228694
      6          1           0        1.365612    2.013509   -0.520413
      7          1           0       -3.203783   -0.789090    0.423710
      8          1           0       -1.213810   -0.094563    1.507966
      9          1           0       -0.167257    0.215643   -1.396831
     10          1           0        0.678260    1.838897    1.112893
     11          1           0       -0.319502    2.462876   -0.225019
     12         17           0        1.385893   -0.837330    0.022783
 ---------------------------------------------------------------------
                    Distance matrix (angstroms):
                    1          2          3          4          5
     1  C    0.000000
     2  C    1.519736   0.000000
     3  C    2.522090   1.492823   0.000000
     4  C    3.596542   2.494417   1.320627   0.000000
     5  H    3.880060   2.712136   2.076504   1.086204   0.000000
     6  H    1.091287   2.152281   3.454626   4.483220   4.595980
     7  H    4.483219   3.491005   2.116315   1.082854   1.858859
     8  H    2.896262   2.251261   1.090626   2.034612   3.011675
     9  H    2.202128   1.090847   2.112745   2.598382   2.353314
    10  H    1.091478   2.175230   2.787883   4.010818   4.533569
    11  H    1.094507   2.135701   2.783014   3.578797   3.782687
    12  Cl   2.748443   1.856210   2.722569   3.735095   3.988711
                    6          7          8          9         10
     6  H    0.000000
     7  H    5.442914   0.000000
     8  H    3.900219   2.370227   0.000000
     9  H    2.519944   3.680265   3.103119   0.000000
    10  H    1.780627   4.738306   2.733912   3.106214   0.000000
    11  H    1.768841   4.394907   3.216134   2.538972   1.781821
    12  Cl   2.902199   4.607407   3.084790   2.352941   2.975109
                   11         12
    11  H    0.000000
    12  Cl   3.723054   0.000000
 Stoichiometry    C4H7Cl
 Framework group  C1[X(C4H7Cl)]
 Deg. of freedom    30
 Full point group                 C1      NOp   1
 Largest Abelian subgroup         C1      NOp   1
 Largest concise Abelian subgroup C1      NOp   1
                         Standard orientation:                         
 ---------------------------------------------------------------------
 Center     Atomic      Atomic             Coordinates (Angstroms)
 Number     Number       Type             X           Y           Z
 ---------------------------------------------------------------------
      1          6           0        0.468748    1.754586    0.047993
      2          6           0        0.008830    0.355924   -0.328593
      3          6           0       -1.204444   -0.096718    0.414108
      4          6           0       -2.328456   -0.497272   -0.151763
      5          1           0       -2.385213   -0.539317   -1.235668
      6          1           0        1.366647    2.015443   -0.514713
      7          1           0       -3.203809   -0.790497    0.414231
      8          1           0       -1.217285   -0.095752    1.504657
      9          1           0       -0.162737    0.217444   -1.396926
     10          1           0        0.674800    1.839094    1.116508
     11          1           0       -0.319544    2.463620   -0.223691
     12         17           0        1.387005   -0.835832    0.026184
 ---------------------------------------------------------------------
 Rotational constants (GHZ):      5.5687970      2.7495140      2.0044021
 Leave Link  202 at Wed Jul 10 16:50:09 2013, MaxMem=  131072000 cpu:       0.0
 (Enter /cerebro/home/software/apps/g09/l301.exe)
 Standard basis: 6-311++G(d,p) (5D, 7F)
 Ernie: Thresh=  0.10000D-02 Tol=  0.10000D-05 Strict=F.
 There are   167 symmetry adapted basis functions of A   symmetry.
 Integral buffers will be    131072 words long.
 Raffenetti 2 integral format.
 Two-electron integral symmetry is turned on.
   167 basis functions,   260 primitive gaussians,   172 cartesian basis functions
    24 alpha electrons       24 beta electrons
       nuclear repulsion energy       211.8637822833 Hartrees.
 IExCor=  402 DFT=T Ex+Corr=B3LYP ExCW=0 ScaHFX=  0.200000
 ScaDFX=  0.800000  0.720000  1.000000  0.810000 ScalE2=  1.000000  1.000000
 IRadAn=      5 IRanWt=     -1 IRanGd=            0 ICorTp=0
 NAtoms=   12 NActive=   12 NUniq=   12 SFac= 7.50D-01 NAtFMM=   80 NAOKFM=F Big=F
 Leave Link  301 at Wed Jul 10 16:50:09 2013, MaxMem=  131072000 cpu:       0.1
 (Enter /cerebro/home/software/apps/g09/l302.exe)
 NPDir=0 NMtPBC=     1 NCelOv=     1 NCel=       1 NClECP=     1 NCelD=      1
         NCelK=      1 NCelE2=     1 NClLst=     1 CellRange=     0.0.
 One-electron integrals computed using PRISM.
 NBasis=   167 RedAO= T  NBF=   167
 NBsUse=   167 1.00D-06 NBFU=   167
 Precomputing XC quadrature grid using
 IXCGrd= 2 IRadAn=           5 IRanWt=          -1 IRanGd=           0 AccXCQ= 1.00D-10.
 NRdTot=    1019 NPtTot=      274288 NUsed=      281590 NTot=      281622
 NSgBfM=   172   172   172   172   172 NAtAll=    12    12.
 Leave Link  302 at Wed Jul 10 16:50:10 2013, MaxMem=  131072000 cpu:       0.7
 (Enter /cerebro/home/software/apps/g09/l303.exe)
 DipDrv:  MaxL=2.
 Leave Link  303 at Wed Jul 10 16:50:10 2013, MaxMem=  131072000 cpu:       0.1
 (Enter /cerebro/home/software/apps/g09/l401.exe)
 Harris functional with IExCor=  402 diagonalized for initial guess.
 ExpMin= 3.60D-02 ExpMax= 1.06D+05 ExpMxC= 3.62D+03 IAcc=3 IRadAn=         5 AccDes= 0.00D+00
 HarFok:  IExCor=  402 AccDes= 0.00D+00 IRadAn=         5 IDoV= 1
 ScaDFX=  1.000000  1.000000  1.000000  1.000000
 FoFCou: FMM=F IPFlag=           0 FMFlag=      100000 FMFlg1=           0
         NFxFlg=           0 DoJE=T BraDBF=F KetDBF=T FulRan=T
         Omega=  0.000000  0.000000  1.000000  0.000000  0.000000 ICntrl=     500 IOpCl=  0
         NMat0=    1 NMatS0=    1 NMatT0=    0 NMatD0=    1 NMtDS0=    0 NMtDT0=    0
         I1Cent=           4 NGrid=           0.
 Petite list used in FoFCou.
 Harris En= -616.914868022112    
 Initial guess orbital symmetries:
       Occupied  (A) (A) (A) (A) (A) (A) (A) (A) (A) (A) (A) (A)
                 (A) (A) (A) (A) (A) (A) (A) (A) (A) (A) (A) (A)
       Virtual   (A) (A) (A) (A) (A) (A) (A) (A) (A) (A) (A) (A)
                 (A) (A) (A) (A) (A) (A) (A) (A) (A) (A) (A) (A)
                 (A) (A) (A) (A) (A) (A) (A) (A) (A) (A) (A) (A)
                 (A) (A) (A) (A) (A) (A) (A) (A) (A) (A) (A) (A)
                 (A) (A) (A) (A) (A) (A) (A) (A) (A) (A) (A) (A)
                 (A) (A) (A) (A) (A) (A) (A) (A) (A) (A) (A) (A)
                 (A) (A) (A) (A) (A) (A) (A) (A) (A) (A) (A) (A)
                 (A) (A) (A) (A) (A) (A) (A) (A) (A) (A) (A) (A)
                 (A) (A) (A) (A) (A) (A) (A) (A) (A) (A) (A) (A)
                 (A) (A) (A) (A) (A) (A) (A) (A) (A) (A) (A) (A)
                 (A) (A) (A) (A) (A) (A) (A) (A) (A) (A) (A) (A)
                 (A) (A) (A) (A) (A) (A) (A) (A) (A) (A) (A)
 The electronic state of the initial guess is 1-A.
 Leave Link  401 at Wed Jul 10 16:50:17 2013, MaxMem=  131072000 cpu:       7.4
 (Enter /cerebro/home/software/apps/g09/l502.exe)
 Closed shell SCF:
 Requested convergence on RMS density matrix=1.00D-11 within 128 cycles.
 Requested convergence on MAX density matrix=1.00D-09.
 Requested convergence on             energy=1.00D-09.
 No special actions if energy rises.
 Using DIIS extrapolation, IDIIS=  1040.
 Integral symmetry usage will be decided dynamically.
       281469 words used for storage of precomputed grid.
 Keep R1 ints in memory in canonical form, NReq=113664361.
 IEnd=      390694 IEndB=      390694 NGot=   131072000 MDV=    20042794
 LenX=    20042794 LenY=    20012769
 Symmetry not used in FoFDir.
 MinBra= 0 MaxBra= 2 Meth= 1.
 IRaf=       0 NMat=   1 IRICut=       1 DoRegI=T DoRafI=F ISym2E= 0 JSym2E=0.

 Cycle   1  Pass 1  IDiag  1:
 E= -616.718576360836    
 DIIS: error= 2.19D-02 at cycle   1 NSaved=   1.
 NSaved= 1 IEnMin= 1 EnMin= -616.718576360836     IErMin= 1 ErrMin= 2.19D-02
 ErrMax= 2.19D-02 EMaxC= 1.00D-01 BMatC= 2.08D-01 BMatP= 2.08D-01
 IDIUse=3 WtCom= 7.81D-01 WtEn= 2.19D-01
 Coeff-Com:  0.100D+01
 Coeff-En:   0.100D+01
 Coeff:      0.100D+01
 Gap=     0.401 Goal=   None    Shift=    0.000
 GapD=    0.401 DampG=2.000 DampE=0.500 DampFc=1.0000 IDamp=-1.
 RMSDP=6.44D-03 MaxDP=1.43D-01              OVMax= 2.26D-01

 Cycle   2  Pass 1  IDiag  1:
 E= -616.638328514179     Delta-E=        0.080247846658 Rises=F Damp=F
 DIIS: error= 2.69D-02 at cycle   2 NSaved=   2.
 NSaved= 2 IEnMin= 1 EnMin= -616.718576360836     IErMin= 1 ErrMin= 2.19D-02
 ErrMax= 2.69D-02 EMaxC= 1.00D-01 BMatC= 2.34D-01 BMatP= 2.08D-01
 IDIUse=2 WtCom= 0.00D+00 WtEn= 1.00D+00
 Coeff-En:   0.589D+00 0.411D+00
 Coeff:      0.589D+00 0.411D+00
 Gap=     0.271 Goal=   None    Shift=    0.000
 RMSDP=5.86D-03 MaxDP=1.62D-01 DE= 8.02D-02 OVMax= 1.18D-01

 Cycle   3  Pass 1  IDiag  1:
 E= -616.891526205566     Delta-E=       -0.253197691387 Rises=F Damp=F
 DIIS: error= 2.76D-03 at cycle   3 NSaved=   3.
 NSaved= 3 IEnMin= 3 EnMin= -616.891526205566     IErMin= 3 ErrMin= 2.76D-03
 ErrMax= 2.76D-03 EMaxC= 1.00D-01 BMatC= 2.39D-03 BMatP= 2.08D-01
 IDIUse=3 WtCom= 9.72D-01 WtEn= 2.76D-02
 Coeff-Com:  0.106D+00 0.514D-01 0.842D+00
 Coeff-En:   0.000D+00 0.000D+00 0.100D+01
 Coeff:      0.103D+00 0.500D-01 0.847D+00
 Gap=     0.253 Goal=   None    Shift=    0.000
 RMSDP=1.26D-03 MaxDP=4.19D-02 DE=-2.53D-01 OVMax= 1.83D-02

 Cycle   4  Pass 1  IDiag  1:
 E= -616.891942253392     Delta-E=       -0.000416047826 Rises=F Damp=F
 DIIS: error= 3.13D-03 at cycle   4 NSaved=   4.
 NSaved= 4 IEnMin= 4 EnMin= -616.891942253392     IErMin= 3 ErrMin= 2.76D-03
 ErrMax= 3.13D-03 EMaxC= 1.00D-01 BMatC= 1.95D-03 BMatP= 2.39D-03
 IDIUse=3 WtCom= 9.69D-01 WtEn= 3.13D-02
 Coeff-Com:  0.257D-01-0.632D-02 0.516D+00 0.465D+00
 Coeff-En:   0.000D+00 0.000D+00 0.451D+00 0.549D+00
 Coeff:      0.249D-01-0.612D-02 0.514D+00 0.468D+00
 Gap=     0.250 Goal=   None    Shift=    0.000
 RMSDP=5.27D-04 MaxDP=1.67D-02 DE=-4.16D-04 OVMax= 1.48D-02

 Cycle   5  Pass 1  IDiag  1:
 E= -616.893766773732     Delta-E=       -0.001824520340 Rises=F Damp=F
 DIIS: error= 5.92D-04 at cycle   5 NSaved=   5.
 NSaved= 5 IEnMin= 5 EnMin= -616.893766773732     IErMin= 5 ErrMin= 5.92D-04
 ErrMax= 5.92D-04 EMaxC= 1.00D-01 BMatC= 7.41D-05 BMatP= 1.95D-03
 IDIUse=3 WtCom= 9.94D-01 WtEn= 5.92D-03
 Coeff-Com:  0.786D-02-0.697D-02 0.219D+00 0.237D+00 0.543D+00
 Coeff-En:   0.000D+00 0.000D+00 0.000D+00 0.000D+00 0.100D+01
 Coeff:      0.781D-02-0.693D-02 0.217D+00 0.236D+00 0.546D+00
 Gap=     0.250 Goal=   None    Shift=    0.000
 RMSDP=9.97D-05 MaxDP=3.50D-03 DE=-1.82D-03 OVMax= 6.06D-03

 Cycle   6  Pass 1  IDiag  1:
 E= -616.893834164169     Delta-E=       -0.000067390438 Rises=F Damp=F
 DIIS: error= 2.43D-04 at cycle   6 NSaved=   6.
 NSaved= 6 IEnMin= 6 EnMin= -616.893834164169     IErMin= 6 ErrMin= 2.43D-04
 ErrMax= 2.43D-04 EMaxC= 1.00D-01 BMatC= 1.21D-05 BMatP= 7.41D-05
 IDIUse=3 WtCom= 9.98D-01 WtEn= 2.43D-03
 Coeff-Com:  0.106D-02-0.425D-02 0.673D-01 0.797D-01 0.317D+00 0.539D+00
 Coeff-En:   0.000D+00 0.000D+00 0.000D+00 0.000D+00 0.115D+00 0.885D+00
 Coeff:      0.106D-02-0.424D-02 0.672D-01 0.795D-01 0.317D+00 0.540D+00
 Gap=     0.250 Goal=   None    Shift=    0.000
 RMSDP=4.15D-05 MaxDP=1.28D-03 DE=-6.74D-05 OVMax= 1.74D-03

 Cycle   7  Pass 1  IDiag  1:
 E= -616.893845843785     Delta-E=       -0.000011679615 Rises=F Damp=F
 DIIS: error= 2.76D-05 at cycle   7 NSaved=   7.
 NSaved= 7 IEnMin= 7 EnMin= -616.893845843785     IErMin= 7 ErrMin= 2.76D-05
 ErrMax= 2.76D-05 EMaxC= 1.00D-01 BMatC= 3.08D-07 BMatP= 1.21D-05
 IDIUse=1 WtCom= 1.00D+00 WtEn= 0.00D+00
 Coeff-Com: -0.219D-04-0.156D-02 0.158D-01 0.193D-01 0.987D-01 0.224D+00
 Coeff-Com:  0.644D+00
 Coeff:     -0.219D-04-0.156D-02 0.158D-01 0.193D-01 0.987D-01 0.224D+00
 Coeff:      0.644D+00
 Gap=     0.250 Goal=   None    Shift=    0.000
 RMSDP=9.75D-06 MaxDP=4.38D-04 DE=-1.17D-05 OVMax= 1.36D-04

 Cycle   8  Pass 1  IDiag  1:
 E= -616.893846124457     Delta-E=       -0.000000280673 Rises=F Damp=F
 DIIS: error= 6.46D-06 at cycle   8 NSaved=   8.
 NSaved= 8 IEnMin= 8 EnMin= -616.893846124457     IErMin= 8 ErrMin= 6.46D-06
 ErrMax= 6.46D-06 EMaxC= 1.00D-01 BMatC= 1.54D-08 BMatP= 3.08D-07
 IDIUse=1 WtCom= 1.00D+00 WtEn= 0.00D+00
 Coeff-Com: -0.315D-04-0.365D-03 0.220D-02 0.296D-02 0.204D-01 0.590D-01
 Coeff-Com:  0.255D+00 0.661D+00
 Coeff:     -0.315D-04-0.365D-03 0.220D-02 0.296D-02 0.204D-01 0.590D-01
 Coeff:      0.255D+00 0.661D+00
 Gap=     0.250 Goal=   None    Shift=    0.000
 RMSDP=1.66D-06 MaxDP=3.89D-05 DE=-2.81D-07 OVMax= 3.65D-05

 Cycle   9  Pass 1  IDiag  1:
 E= -616.893846138516     Delta-E=       -0.000000014059 Rises=F Damp=F
 DIIS: error= 1.70D-06 at cycle   9 NSaved=   9.
 NSaved= 9 IEnMin= 9 EnMin= -616.893846138516     IErMin= 9 ErrMin= 1.70D-06
 ErrMax= 1.70D-06 EMaxC= 1.00D-01 BMatC= 8.16D-10 BMatP= 1.54D-08
 IDIUse=1 WtCom= 1.00D+00 WtEn= 0.00D+00
 Coeff-Com: -0.128D-04-0.329D-04-0.105D-03-0.632D-05 0.569D-03 0.451D-02
 Coeff-Com:  0.386D-01 0.238D+00 0.719D+00
 Coeff:     -0.128D-04-0.329D-04-0.105D-03-0.632D-05 0.569D-03 0.451D-02
 Coeff:      0.386D-01 0.238D+00 0.719D+00
 Gap=     0.250 Goal=   None    Shift=    0.000
 RMSDP=7.18D-07 MaxDP=3.17D-05 DE=-1.41D-08 OVMax= 6.76D-06

 Cycle  10  Pass 1  IDiag  1:
 E= -616.893846139293     Delta-E=       -0.000000000777 Rises=F Damp=F
 DIIS: error= 4.16D-07 at cycle  10 NSaved=  10.
 NSaved=10 IEnMin=10 EnMin= -616.893846139293     IErMin=10 ErrMin= 4.16D-07
 ErrMax= 4.16D-07 EMaxC= 1.00D-01 BMatC= 3.84D-11 BMatP= 8.16D-10
 IDIUse=1 WtCom= 1.00D+00 WtEn= 0.00D+00
 Coeff-Com: -0.450D-05-0.132D-05-0.106D-03-0.831D-04-0.447D-03-0.329D-04
 Coeff-Com:  0.729D-02 0.775D-01 0.294D+00 0.621D+00
 Coeff:     -0.450D-05-0.132D-05-0.106D-03-0.831D-04-0.447D-03-0.329D-04
 Coeff:      0.729D-02 0.775D-01 0.294D+00 0.621D+00
 Gap=     0.250 Goal=   None    Shift=    0.000
 RMSDP=1.21D-07 MaxDP=4.57D-06 DE=-7.77D-10 OVMax= 1.71D-06

 Cycle  11  Pass 1  IDiag  1:
 E= -616.893846139328     Delta-E=       -0.000000000035 Rises=F Damp=F
 DIIS: error= 1.12D-07 at cycle  11 NSaved=  11.
 NSaved=11 IEnMin=11 EnMin= -616.893846139328     IErMin=11 ErrMin= 1.12D-07
 ErrMax= 1.12D-07 EMaxC= 1.00D-01 BMatC= 3.80D-12 BMatP= 3.84D-11
 IDIUse=1 WtCom= 1.00D+00 WtEn= 0.00D+00
 Coeff-Com: -0.882D-06 0.187D-05-0.339D-04-0.321D-04-0.226D-03-0.284D-03
 Coeff-Com:  0.594D-04 0.128D-01 0.630D-01 0.277D+00 0.647D+00
 Coeff:     -0.882D-06 0.187D-05-0.339D-04-0.321D-04-0.226D-03-0.284D-03
 Coeff:      0.594D-04 0.128D-01 0.630D-01 0.277D+00 0.647D+00
 Gap=     0.250 Goal=   None    Shift=    0.000
 RMSDP=2.83D-08 MaxDP=1.07D-06 DE=-3.52D-11 OVMax= 4.22D-07

 Cycle  12  Pass 1  IDiag  1:
 E= -616.893846139329     Delta-E=        0.000000000000 Rises=F Damp=F
 DIIS: error= 1.20D-08 at cycle  12 NSaved=  12.
 NSaved=12 IEnMin=12 EnMin= -616.893846139329     IErMin=12 ErrMin= 1.20D-08
 ErrMax= 1.20D-08 EMaxC= 1.00D-01 BMatC= 6.28D-14 BMatP= 3.80D-12
 IDIUse=1 WtCom= 1.00D+00 WtEn= 0.00D+00
 Coeff-Com: -0.473D-07 0.232D-06-0.139D-05-0.291D-05-0.277D-04-0.244D-04
 Coeff-Com: -0.286D-03-0.115D-02-0.796D-03 0.286D-01 0.128D+00 0.845D+00
 Coeff:     -0.473D-07 0.232D-06-0.139D-05-0.291D-05-0.277D-04-0.244D-04
 Coeff:     -0.286D-03-0.115D-02-0.796D-03 0.286D-01 0.128D+00 0.845D+00
 Gap=     0.250 Goal=   None    Shift=    0.000
 RMSDP=1.11D-08 MaxDP=4.72D-07 DE=-3.41D-13 OVMax= 8.09D-08

 Cycle  13  Pass 1  IDiag  1:
 E= -616.893846139332     Delta-E=       -0.000000000004 Rises=F Damp=F
 DIIS: error= 3.67D-09 at cycle  13 NSaved=  13.
 NSaved=13 IEnMin=13 EnMin= -616.893846139332     IErMin=13 ErrMin= 3.67D-09
 ErrMax= 3.67D-09 EMaxC= 1.00D-01 BMatC= 3.10D-15 BMatP= 6.28D-14
 IDIUse=1 WtCom= 1.00D+00 WtEn= 0.00D+00
 Coeff-Com:  0.104D-07 0.405D-07 0.123D-06-0.426D-06-0.553D-05-0.407D-05
 Coeff-Com: -0.114D-03-0.664D-03-0.191D-02 0.137D-02 0.234D-01 0.254D+00
 Coeff-Com:  0.724D+00
 Coeff:      0.104D-07 0.405D-07 0.123D-06-0.426D-06-0.553D-05-0.407D-05
 Coeff:     -0.114D-03-0.664D-03-0.191D-02 0.137D-02 0.234D-01 0.254D+00
 Coeff:      0.724D+00
 Gap=     0.250 Goal=   None    Shift=    0.000
 RMSDP=2.70D-09 MaxDP=1.15D-07 DE=-3.64D-12 OVMax= 1.44D-08

 Cycle  14  Pass 1  IDiag  1:
 E= -616.893846139333     Delta-E=        0.000000000000 Rises=F Damp=F
 DIIS: error= 7.75D-10 at cycle  14 NSaved=  14.
 NSaved=14 IEnMin=14 EnMin= -616.893846139333     IErMin=14 ErrMin= 7.75D-10
 ErrMax= 7.75D-10 EMaxC= 1.00D-01 BMatC= 1.36D-16 BMatP= 3.10D-15
 IDIUse=1 WtCom= 1.00D+00 WtEn= 0.00D+00
 Coeff-Com:  0.624D-08 0.481D-08-0.176D-07-0.293D-07-0.619D-06-0.512D-06
 Coeff-Com: -0.166D-04-0.750D-04-0.395D-03-0.103D-02 0.285D-03 0.205D-01
 Coeff-Com:  0.184D+00 0.797D+00
 Coeff:      0.624D-08 0.481D-08-0.176D-07-0.293D-07-0.619D-06-0.512D-06
 Coeff:     -0.166D-04-0.750D-04-0.395D-03-0.103D-02 0.285D-03 0.205D-01
 Coeff:      0.184D+00 0.797D+00
 Gap=     0.250 Goal=   None    Shift=    0.000
 RMSDP=5.07D-10 MaxDP=2.25D-08 DE=-4.55D-13 OVMax= 3.56D-09

 Cycle  15  Pass 1  IDiag  1:
 E= -616.893846139332     Delta-E=        0.000000000000 Rises=F Damp=F
 DIIS: error= 1.46D-10 at cycle  15 NSaved=  15.
 NSaved=15 IEnMin=14 EnMin= -616.893846139333     IErMin=15 ErrMin= 1.46D-10
 ErrMax= 1.46D-10 EMaxC= 1.00D-01 BMatC= 3.30D-18 BMatP= 1.36D-16
 IDIUse=1 WtCom= 1.00D+00 WtEn= 0.00D+00
 Coeff-Com:  0.944D-09 0.662D-09-0.221D-08 0.221D-07 0.296D-07 0.113D-06
 Coeff-Com: -0.475D-06 0.270D-05-0.248D-04-0.192D-03-0.560D-03-0.325D-02
 Coeff-Com:  0.707D-02 0.125D+00 0.872D+00
 Coeff:      0.944D-09 0.662D-09-0.221D-08 0.221D-07 0.296D-07 0.113D-06
 Coeff:     -0.475D-06 0.270D-05-0.248D-04-0.192D-03-0.560D-03-0.325D-02
 Coeff:      0.707D-02 0.125D+00 0.872D+00
 Gap=     0.250 Goal=   None    Shift=    0.000
 RMSDP=8.81D-11 MaxDP=3.06D-09 DE= 2.27D-13 OVMax= 4.18D-10

 Cycle  16  Pass 1  IDiag  1:
 E= -616.893846139332     Delta-E=        0.000000000000 Rises=F Damp=F
 DIIS: error= 2.73D-11 at cycle  16 NSaved=  16.
 NSaved=16 IEnMin=14 EnMin= -616.893846139333     IErMin=16 ErrMin= 2.73D-11
 ErrMax= 2.73D-11 EMaxC= 1.00D-01 BMatC= 1.77D-19 BMatP= 3.30D-18
 IDIUse=1 WtCom= 1.00D+00 WtEn= 0.00D+00
 Large coefficients: NSaved= 16 BigCof=    0.00 CofMax=   10.00 Det=-1.32D-18
 Inversion failed.  Reducing to 15 matrices.
 Coeff-Com: -0.120D-10 0.754D-09 0.770D-08 0.244D-07 0.993D-07 0.415D-06
 Coeff-Com:  0.265D-05 0.674D-05-0.949D-05-0.154D-03-0.134D-02-0.453D-02
 Coeff-Com:  0.458D-02 0.210D+00 0.791D+00
 Coeff:     -0.120D-10 0.754D-09 0.770D-08 0.244D-07 0.993D-07 0.415D-06
 Coeff:      0.265D-05 0.674D-05-0.949D-05-0.154D-03-0.134D-02-0.453D-02
 Coeff:      0.458D-02 0.210D+00 0.791D+00
 Gap=     0.250 Goal=   None    Shift=    0.000
 RMSDP=3.52D-11 MaxDP=2.16D-09 DE= 2.27D-13 OVMax= 1.65D-10

 Cycle  17  Pass 1  IDiag  1:
 E= -616.893846139331     Delta-E=        0.000000000002 Rises=F Damp=F
 DIIS: error= 7.60D-12 at cycle  17 NSaved=  16.
 NSaved=16 IEnMin=13 EnMin= -616.893846139333     IErMin=16 ErrMin= 7.60D-12
 ErrMax= 7.60D-12 EMaxC= 1.00D-01 BMatC= 6.19D-21 BMatP= 1.77D-19
 IDIUse=1 WtCom= 1.00D+00 WtEn= 0.00D+00
 Large coefficients: NSaved= 16 BigCof=    0.00 CofMax=   10.00 Det=-5.78D-20
 Inversion failed.  Reducing to 15 matrices.
 Coeff-Com:  0.624D-09 0.159D-08 0.563D-08 0.283D-07 0.120D-06 0.544D-06
 Coeff-Com:  0.264D-05 0.328D-05-0.288D-04-0.275D-03-0.159D-02-0.305D-02
 Coeff-Com:  0.262D-01 0.219D+00 0.760D+00
 Coeff:      0.624D-09 0.159D-08 0.563D-08 0.283D-07 0.120D-06 0.544D-06
 Coeff:      0.264D-05 0.328D-05-0.288D-04-0.275D-03-0.159D-02-0.305D-02
 Coeff:      0.262D-01 0.219D+00 0.760D+00
 Gap=     0.250 Goal=   None    Shift=    0.000
 RMSDP=2.15D-11 MaxDP=1.59D-09 DE= 1.59D-12 OVMax= 2.02D-11

 Cycle  18  Pass 1  IDiag  1:
 E= -616.893846139333     Delta-E=       -0.000000000002 Rises=F Damp=F
 DIIS: error= 2.62D-12 at cycle  18 NSaved=  16.
 NSaved=16 IEnMin=16 EnMin= -616.893846139333     IErMin=16 ErrMin= 2.62D-12
 ErrMax= 2.62D-12 EMaxC= 1.00D-01 BMatC= 2.92D-22 BMatP= 6.19D-21
 IDIUse=1 WtCom= 1.00D+00 WtEn= 0.00D+00
 Large coefficients: NSaved= 16 BigCof=    0.00 CofMax=   10.00 Det=-2.35D-21
 Inversion failed.  Reducing to 15 matrices.
 Coeff-Com:  0.145D-09 0.642D-09 0.559D-08 0.302D-07 0.156D-06 0.720D-06
 Coeff-Com:  0.106D-05-0.455D-05-0.469D-04-0.291D-03-0.724D-03 0.121D-02
 Coeff-Com:  0.381D-01 0.200D+00 0.762D+00
 Coeff:      0.145D-09 0.642D-09 0.559D-08 0.302D-07 0.156D-06 0.720D-06
 Coeff:      0.106D-05-0.455D-05-0.469D-04-0.291D-03-0.724D-03 0.121D-02
 Coeff:      0.381D-01 0.200D+00 0.762D+00
 Gap=     0.250 Goal=   None    Shift=    0.000
 RMSDP=1.25D-11 MaxDP=5.03D-10 DE=-2.27D-12 OVMax= 5.03D-12

 Cycle  19  Pass 1  IDiag  1:
 E= -616.893846139331     Delta-E=        0.000000000002 Rises=F Damp=F
 DIIS: error= 2.04D-12 at cycle  19 NSaved=  16.
 NSaved=16 IEnMin=15 EnMin= -616.893846139333     IErMin=16 ErrMin= 2.04D-12
 ErrMax= 2.04D-12 EMaxC= 1.00D-01 BMatC= 1.86D-22 BMatP= 2.92D-22
 IDIUse=1 WtCom= 1.00D+00 WtEn= 0.00D+00
 Large coefficients: NSaved= 16 BigCof=    0.00 CofMax=   10.00 Det=-5.44D-22
 Inversion failed.  Reducing to 15 matrices.
 Coeff-Com: -0.556D-11 0.117D-08 0.642D-08 0.295D-07 0.193D-06 0.478D-06
 Coeff-Com: -0.241D-06-0.452D-05-0.708D-04-0.324D-03-0.169D-02 0.788D-02
 Coeff-Com:  0.729D-01 0.419D+00 0.502D+00
 Coeff:     -0.556D-11 0.117D-08 0.642D-08 0.295D-07 0.193D-06 0.478D-06
 Coeff:     -0.241D-06-0.452D-05-0.708D-04-0.324D-03-0.169D-02 0.788D-02
 Coeff:      0.729D-01 0.419D+00 0.502D+00
 Gap=     0.250 Goal=   None    Shift=    0.000
 RMSDP=6.71D-12 MaxDP=1.86D-10 DE= 2.27D-12 OVMax= 3.11D-12

 SCF Done:  E(RB3LYP) =  -616.893846139     A.U. after   19 cycles
             Convg  =    0.6713D-11             -V/T =  2.0030
 KE= 6.150492189927D+02 PE=-1.880492542559D+03 EE= 4.366856951434D+02
 Leave Link  502 at Wed Jul 10 16:54:29 2013, MaxMem=  131072000 cpu:     251.9
 (Enter /cerebro/home/software/apps/g09/l801.exe)
 Range of M.O.s used for correlation:     1   167
 NBasis=   167 NAE=    24 NBE=    24 NFC=     0 NFV=     0
 NROrb=    167 NOA=    24 NOB=    24 NVA=   143 NVB=   143

 **** Warning!!: The largest alpha MO coefficient is  0.64673951D+02

 Leave Link  801 at Wed Jul 10 16:54:30 2013, MaxMem=  131072000 cpu:       0.0
 (Enter /cerebro/home/software/apps/g09/l1002.exe)
 Minotr:  Closed shell wavefunction.
          Direct CPHF calculation.
          Differentiating once with respect to magnetic field using GIAOs.
          Electric field/nuclear overlap derivatives assumed to be zero.
          Requested convergence is 1.0D-11 RMS, and 1.0D-10 maximum.
          NewPWx=F KeepS1=T KeepF1=T KeepIn=T MapXYZ=F SortEE=F KeepMc=T.
          MDV=     131071900 using IRadAn=       4.
 Generate precomputed XC quadrature information.
          Solving linear equations separately, MaxMat=       0.
          Doing perturbations at frequencies    0.071980    0.077357    0.104503    0.128347
 FoFCou: FMM=F IPFlag=           0 FMFlag=           0 FMFlg1=           0
         NFxFlg=           0 DoJE=F BraDBF=F KetDBF=T FulRan=T
         Omega=  0.000000  0.000000  1.000000  0.000000  0.000000 ICntrl=    6100 IOpCl=  0
         NMat0=    1 NMatS0=    1 NMatT0=    0 NMatD0=    1 NMtDS0=    0 NMtDT0=    0
         I1Cent=           7 NGrid=          12.
 Symmetry not used in FoFCou.
 Integrals replicated using symmetry in FoFDir.
 MinBra= 0 MaxBra= 2 Meth= 1.
 IRaf=       0 NMat=  24 IRICut=      30 DoRegI=T DoRafI=T ISym2E= 2 JSym2E=2.
 CalDSu exits because no D1Ps are significant.
          There are    12 degrees of freedom in the 1st order CPHF.  IDoFFX=0.
 LinEq1:  Iter=  0 NonCon=    12 RMS=5.66D-02 Max=1.53D+00
 AX will form    12 AO Fock derivatives at one time.
 LinEq1:  Iter=  1 NonCon=    12 RMS=1.49D-02 Max=6.76D-01
 LinEq1:  Iter=  2 NonCon=    12 RMS=1.21D-02 Max=6.58D-01
 LinEq1:  Iter=  3 NonCon=    12 RMS=6.20D-03 Max=1.64D-01
 LinEq1:  Iter=  4 NonCon=    12 RMS=3.97D-03 Max=7.25D-02
 LinEq1:  Iter=  5 NonCon=    12 RMS=1.64D-03 Max=5.02D-02
 LinEq1:  Iter=  6 NonCon=    12 RMS=8.60D-04 Max=1.56D-02
 LinEq1:  Iter=  7 NonCon=    12 RMS=3.25D-04 Max=5.45D-03
 LinEq1:  Iter=  8 NonCon=    12 RMS=1.37D-04 Max=2.74D-03
 LinEq1:  Iter=  9 NonCon=    12 RMS=5.09D-05 Max=7.35D-04
 LinEq1:  Iter= 10 NonCon=    12 RMS=1.96D-05 Max=2.90D-04
 LinEq1:  Iter= 11 NonCon=    12 RMS=7.11D-06 Max=1.34D-04
 LinEq1:  Iter= 12 NonCon=    12 RMS=3.28D-06 Max=3.89D-05
 LinEq1:  Iter= 13 NonCon=    12 RMS=1.21D-06 Max=2.14D-05
 LinEq1:  Iter= 14 NonCon=    12 RMS=3.63D-07 Max=5.72D-06
 LinEq1:  Iter= 15 NonCon=    12 RMS=8.82D-08 Max=1.71D-06
 LinEq1:  Iter= 16 NonCon=    12 RMS=2.88D-08 Max=8.10D-07
 LinEq1:  Iter= 17 NonCon=    12 RMS=8.37D-09 Max=1.93D-07
 LinEq1:  Iter= 18 NonCon=    12 RMS=2.21D-09 Max=5.93D-08
 LinEq1:  Iter= 19 NonCon=    12 RMS=6.25D-10 Max=1.54D-08
 LinEq1:  Iter= 20 NonCon=    12 RMS=1.72D-10 Max=3.25D-09
 LinEq1:  Iter= 21 NonCon=     7 RMS=6.12D-11 Max=1.37D-09
 LinEq1:  Iter= 22 NonCon=     3 RMS=1.25D-11 Max=2.07D-10
 LinEq1:  Iter= 23 NonCon=     0 RMS=5.29D-12 Max=9.52D-11
 Linear equations converged to 1.000D-11 1.000D-10 after    23 iterations.
 FullF1:  Do perturbations    1 to    12.
 Dipole-magnetic dipole polarizability for W=    0.071980:
                 1             2             3 
      1   0.455575D+01 -0.109440D+01 -0.721311D+01
      2  -0.717128D+01 -0.471012D+01 -0.193493D+02
      3   0.243609D+02  0.897321D+01  0.150132D+01
 w=    0.071980 a.u., Optical Rotation Beta=     -0.4490 au.
 Molar Mass =     90.5523 grams/mole, [Alpha] ( 6330.0 A) =     -166.10 deg.
 Dipole-magnetic dipole polarizability for W=    0.077357:
                 1             2             3 
      1   0.462322D+01 -0.108208D+01 -0.719931D+01
      2  -0.729465D+01 -0.475396D+01 -0.194213D+02
      3   0.245664D+02  0.905376D+01  0.152522D+01
 w=    0.077357 a.u., Optical Rotation Beta=     -0.4648 au.
 Molar Mass =     90.5523 grams/mole, [Alpha] ( 5890.0 A) =     -198.61 deg.
 Dipole-magnetic dipole polarizability for W=    0.104503:
                 1             2             3 
      1   0.509058D+01 -0.988706D+00 -0.709688D+01
      2  -0.813163D+01 -0.504039D+01 -0.198847D+02
      3   0.259893D+02  0.961274D+01  0.169229D+01
 w=    0.104503 a.u., Optical Rotation Beta=     -0.5808 au.
 Molar Mass =     90.5523 grams/mole, [Alpha] ( 4360.0 A) =     -452.92 deg.
 Dipole-magnetic dipole polarizability for W=    0.128347:
                 1             2             3 
      1   0.575710D+01 -0.835390D+00 -0.693715D+01
      2  -0.926780D+01 -0.540060D+01 -0.204545D+02
      3   0.280228D+02  0.104133D+02  0.193454D+01
 w=    0.128347 a.u., Optical Rotation Beta=     -0.7637 au.
 Molar Mass =     90.5523 grams/mole, [Alpha] ( 3550.0 A) =     -898.26 deg.
 End of Minotr Frequency-dependent properties on file   721 Mask=       2 NFrqRd=     4 NDeriv=     1 LenFil=      42:
 Frequencies=    0.071980    0.077357    0.104503    0.128347
 Property number 2 -- FD Optical Rotation Tensor frequency  1    0.071980:
                 1             2             3 
      1   0.455575D+01 -0.109440D+01 -0.721311D+01
      2  -0.717128D+01 -0.471012D+01 -0.193493D+02
      3   0.243609D+02  0.897321D+01  0.150132D+01
 Property number 2 -- FD Optical Rotation Tensor frequency  2    0.077357:
                 1             2             3 
      1   0.462322D+01 -0.108208D+01 -0.719931D+01
      2  -0.729465D+01 -0.475396D+01 -0.194213D+02
      3   0.245664D+02  0.905376D+01  0.152522D+01
 Property number 2 -- FD Optical Rotation Tensor frequency  3    0.104503:
                 1             2             3 
      1   0.509058D+01 -0.988706D+00 -0.709688D+01
      2  -0.813163D+01 -0.504039D+01 -0.198847D+02
      3   0.259893D+02  0.961274D+01  0.169229D+01
 Property number 2 -- FD Optical Rotation Tensor frequency  4    0.128347:
                 1             2             3 
      1   0.575710D+01 -0.835390D+00 -0.693715D+01
      2  -0.926780D+01 -0.540060D+01 -0.204545D+02
      3   0.280228D+02  0.104133D+02  0.193454D+01
 End of Minotr Frequency-dependent properties file   722 does not exist.
 Leave Link 1002 at Wed Jul 10 17:19:57 2013, MaxMem=  131072000 cpu:    1526.3
 (Enter /cerebro/home/software/apps/g09/l601.exe)
 Copying SCF densities to generalized density rwf, IOpCl= 0 IROHF=0.

 **********************************************************************

            Population analysis using the SCF density.

 **********************************************************************

 Orbital symmetries:
       Occupied  (A) (A) (A) (A) (A) (A) (A) (A) (A) (A) (A) (A)
                 (A) (A) (A) (A) (A) (A) (A) (A) (A) (A) (A) (A)
       Virtual   (A) (A) (A) (A) (A) (A) (A) (A) (A) (A) (A) (A)
                 (A) (A) (A) (A) (A) (A) (A) (A) (A) (A) (A) (A)
                 (A) (A) (A) (A) (A) (A) (A) (A) (A) (A) (A) (A)
                 (A) (A) (A) (A) (A) (A) (A) (A) (A) (A) (A) (A)
                 (A) (A) (A) (A) (A) (A) (A) (A) (A) (A) (A) (A)
                 (A) (A) (A) (A) (A) (A) (A) (A) (A) (A) (A) (A)
                 (A) (A) (A) (A) (A) (A) (A) (A) (A) (A) (A) (A)
                 (A) (A) (A) (A) (A) (A) (A) (A) (A) (A) (A) (A)
                 (A) (A) (A) (A) (A) (A) (A) (A) (A) (A) (A) (A)
                 (A) (A) (A) (A) (A) (A) (A) (A) (A) (A) (A) (A)
                 (A) (A) (A) (A) (A) (A) (A) (A) (A) (A) (A) (A)
                 (A) (A) (A) (A) (A) (A) (A) (A) (A) (A) (A)
 The electronic state is 1-A.
 Alpha  occ. eigenvalues -- -101.53357 -10.24969 -10.19116 -10.18244 -10.18102
 Alpha  occ. eigenvalues --   -9.44802  -7.21236  -7.20292  -7.20279  -0.86797
 Alpha  occ. eigenvalues --   -0.78881  -0.74385  -0.64023  -0.57558  -0.48680
 Alpha  occ. eigenvalues --   -0.47751  -0.44594  -0.41800  -0.40084  -0.37447
 Alpha  occ. eigenvalues --   -0.36732  -0.30601  -0.29879  -0.28118
 Alpha virt. eigenvalues --   -0.03112  -0.00750   0.00633   0.00690   0.02275
 Alpha virt. eigenvalues --    0.02821   0.03852   0.04136   0.06379   0.06424
 Alpha virt. eigenvalues --    0.07264   0.08320   0.08711   0.09847   0.11096
 Alpha virt. eigenvalues --    0.11632   0.11782   0.12216   0.12852   0.13126
 Alpha virt. eigenvalues --    0.13530   0.14251   0.15018   0.15682   0.16186
 Alpha virt. eigenvalues --    0.16523   0.17036   0.18694   0.19189   0.21391
 Alpha virt. eigenvalues --    0.21946   0.22651   0.24604   0.25779   0.27515
 Alpha virt. eigenvalues --    0.29060   0.33917   0.36059   0.39327   0.42565
 Alpha virt. eigenvalues --    0.43019   0.45084   0.46148   0.47941   0.48790
 Alpha virt. eigenvalues --    0.49503   0.52390   0.53072   0.56531   0.58808
 Alpha virt. eigenvalues --    0.60080   0.62377   0.63180   0.64649   0.65330
 Alpha virt. eigenvalues --    0.65989   0.69050   0.70649   0.73994   0.74571
 Alpha virt. eigenvalues --    0.79259   0.81859   0.83071   0.86703   0.88956
 Alpha virt. eigenvalues --    0.90538   0.94311   0.96421   1.00788   1.03250
 Alpha virt. eigenvalues --    1.06487   1.08154   1.13361   1.18240   1.19808
 Alpha virt. eigenvalues --    1.28632   1.38899   1.41975   1.44882   1.46901
 Alpha virt. eigenvalues --    1.50632   1.53762   1.56315   1.58590   1.60069
 Alpha virt. eigenvalues --    1.62617   1.67665   1.69149   1.70455   1.72446
 Alpha virt. eigenvalues --    1.77555   1.79198   1.86799   1.88708   1.93518
 Alpha virt. eigenvalues --    1.98724   2.02310   2.06381   2.12432   2.16969
 Alpha virt. eigenvalues --    2.21001   2.21778   2.26403   2.29353   2.30556
 Alpha virt. eigenvalues --    2.34906   2.36959   2.45590   2.46060   2.49535
 Alpha virt. eigenvalues --    2.52569   2.56514   2.57859   2.59280   2.60648
 Alpha virt. eigenvalues --    2.64635   2.71992   2.73440   2.74615   2.77975
 Alpha virt. eigenvalues --    2.86216   2.87036   2.93221   3.06854   3.08680
 Alpha virt. eigenvalues --    3.18393   3.39603   3.53110   3.72140   3.79297
 Alpha virt. eigenvalues --    3.80070   3.94634   4.12145   4.27585   9.75577
 Alpha virt. eigenvalues --   23.71050  23.79515  23.94554  24.29417  25.92844
 Alpha virt. eigenvalues --   25.97953  26.44687 215.74597
          Condensed to atoms (all electrons):
              1          2          3          4          5          6
     1  C    5.404133   0.130860  -0.002683   0.104722  -0.004283   0.379029
     2  C    0.130860   5.452797  -0.012966  -0.084485  -0.032957  -0.056554
     3  C   -0.002683  -0.012966   5.361070   0.409775  -0.036515   0.026237
     4  C    0.104722  -0.084485   0.409775   5.377064   0.379155  -0.013108
     5  H   -0.004283  -0.032957  -0.036515   0.379155   0.585422   0.001269
     6  H    0.379029  -0.056554   0.026237  -0.013108   0.001269   0.549519
     7  H    0.003449   0.020881  -0.017603   0.397469  -0.040420   0.000109
     8  H   -0.016795  -0.015473   0.344220  -0.050851   0.018947  -0.001015
     9  H   -0.037255   0.472996  -0.144444   0.012699   0.012120  -0.003917
    10  H    0.397025  -0.013462  -0.042974  -0.000752   0.002433  -0.018768
    11  H    0.368101  -0.051075   0.018439   0.005579  -0.001188  -0.029396
    12  Cl  -0.047761   0.026386   0.000807   0.063992  -0.001019   0.013442
              7          8          9         10         11         12
     1  C    0.003449  -0.016795  -0.037255   0.397025   0.368101  -0.047761
     2  C    0.020881  -0.015473   0.472996  -0.013462  -0.051075   0.026386
     3  C   -0.017603   0.344220  -0.144444  -0.042974   0.018439   0.000807
     4  C    0.397469  -0.050851   0.012699  -0.000752   0.005579   0.063992
     5  H   -0.040420   0.018947   0.012120   0.002433  -0.001188  -0.001019
     6  H    0.000109  -0.001015  -0.003917  -0.018768  -0.029396   0.013442
     7  H    0.532867  -0.022809  -0.002723  -0.000985   0.000282  -0.003242
     8  H   -0.022809   0.558091   0.005764   0.004199  -0.002955   0.016377
     9  H   -0.002723   0.005764   0.514583   0.007006  -0.012194  -0.046172
    10  H   -0.000985   0.004199   0.007006   0.532425  -0.033135   0.007886
    11  H    0.000282  -0.002955  -0.012194  -0.033135   0.583947   0.018871
    12  Cl  -0.003242   0.016377  -0.046172   0.007886   0.018871  17.010900
 Mulliken atomic charges:
              1
     1  C   -0.678543
     2  C    0.163053
     3  C    0.096636
     4  C   -0.601259
     5  H    0.117036
     6  H    0.153155
     7  H    0.132726
     8  H    0.162299
     9  H    0.221537
    10  H    0.159103
    11  H    0.134725
    12  Cl  -0.060468
 Sum of Mulliken atomic charges =   0.00000
 Mulliken charges with hydrogens summed into heavy atoms:
              1
     1  C   -0.231560
     2  C    0.384590
     3  C    0.258935
     4  C   -0.351497
    12  Cl  -0.060468
 Sum of Mulliken charges with hydrogens summed into heavy atoms =   0.00000
 Electronic spatial extent (au):  <R**2>=            628.0356
 Charge=              0.0000 electrons
 Dipole moment (field-independent basis, Debye):
    X=             -1.7048    Y=              1.5909    Z=             -0.3159  Tot=              2.3532
 Quadrupole moment (field-independent basis, Debye-Ang):
   XX=            -39.4333   YY=            -39.9814   ZZ=            -37.1774
   XY=              2.3911   XZ=             -0.1768   YZ=             -0.2045
 Traceless Quadrupole moment (field-independent basis, Debye-Ang):
   XX=             -0.5692   YY=             -1.1174   ZZ=              1.6866
   XY=              2.3911   XZ=             -0.1768   YZ=             -0.2045
 Octapole moment (field-independent basis, Debye-Ang**2):
  XXX=             -2.0844  YYY=              1.6277  ZZZ=             -0.3788  XYY=              4.4154
  XXY=             -4.6847  XXZ=              1.1915  XZZ=             -0.8055  YZZ=             -0.2883
  YYZ=             -0.0458  XYZ=             -0.0817
 Hexadecapole moment (field-independent basis, Debye-Ang**3):
 XXXX=           -488.0060 YYYY=           -277.2448 ZZZZ=            -81.1073 XXXY=              9.5992
 XXXZ=             -5.0444 YYYX=             -8.2142 YYYZ=             -1.8851 ZZZX=              0.3288
 ZZZY=              1.2299 XXYY=           -129.4714 XXZZ=            -96.2179 YYZZ=            -61.1190
 XXYZ=             -3.7245 YYXZ=              0.7900 ZZXY=              1.6932
 N-N= 2.118637822833D+02 E-N=-1.880492542559D+03  KE= 6.150492189927D+02
 No NMR shielding tensors so no spin-rotation constants.
 Leave Link  601 at Wed Jul 10 17:19:57 2013, MaxMem=  131072000 cpu:       0.2
 (Enter /cerebro/home/software/apps/g09/l9999.exe)
 AllDun Frequency-dependent properties on file 20721 Mask=       2 NFrqRd=     4 NDeriv=     1 LenFil=      42:
 Frequencies=    0.071980    0.077357    0.104503    0.128347
 Property number 2 -- FD Optical Rotation Tensor frequency  1    0.071980:
                 1             2             3 
      1   0.459933D+01 -0.108034D+01 -0.723178D+01
      2  -0.721077D+01 -0.471404D+01 -0.193199D+02
      3   0.243631D+02  0.896770D+01  0.146165D+01
 Property number 2 -- FD Optical Rotation Tensor frequency  2    0.077357:
                 1             2             3 
      1   0.466736D+01 -0.106785D+01 -0.721816D+01
      2  -0.733424D+01 -0.475781D+01 -0.193915D+02
      3   0.245687D+02  0.904816D+01  0.148493D+01
 Property number 2 -- FD Optical Rotation Tensor frequency  3    0.104503:
                 1             2             3 
      1   0.513859D+01 -0.973242D+00 -0.711692D+01
      2  -0.817177D+01 -0.504374D+01 -0.198522D+02
      3   0.259917D+02  0.960645D+01  0.164763D+01
 Property number 2 -- FD Optical Rotation Tensor frequency  4    0.128347:
                 1             2             3 
      1   0.581073D+01 -0.818122D+00 -0.695885D+01
      2  -0.930843D+01 -0.540321D+01 -0.204184D+02
      3   0.280254D+02  0.104059D+02  0.188352D+01
 1\1\GINC-COMPUTE-0-105\SP\RB3LYP\6-311++G(d,p)\C4H7Cl1\CRAWDAD\10-Jul-
 2013\0\\#P B3LYP/6-311++G** scf(conver=11) int=ultrafine polar=optrot 
 cphf(rdfreq,conver=11)\\(R)-3-chloro-1-butene tau=120\\0,1\C,0,0.46915
 364,1.75362235,0.04503193\C,0,0.00739363,0.35490893,-0.32909987\C,0,-1
 .20403827,-0.09643648,0.417386\C,0,-2.32986292,-0.49682513,-0.14498751
 \H,0,-2.38969352,-0.53973349,-1.22869375\H,0,1.36561239,2.01350943,-0.
 52041336\H,0,-3.20378339,-0.78908992,0.42370981\H,0,-1.21380969,-0.094
 5629,1.50796622\H,0,-0.16725695,0.21564298,-1.39683091\H,0,0.67825993,
 1.83889671,1.11289306\H,0,-0.31950178,2.4628756,-0.22501877\Cl,0,1.385
 89345,-0.83732953,0.02278311\\Version=EM64L-G09RevA.02\State=1-A\HF=-6
 16.8938461\RMSD=6.713e-12\Dipole=-0.6707285,0.6262024,-0.1229033\Quadr
 upole=-0.4219366,-0.8329867,1.2549233,1.776947,-0.128253,-0.1552452\PG
 =C01 [X(C4H7Cl1)]\\@


 GROWING OLD ISN'T SO BAD -- WHEN YOU CONSIDER THE ALTERNATIVE.

                     -- MAURICE CHEVALIER
 Job cpu time:  0 days  0 hours 29 minutes 47.3 seconds.
 File lengths (MBytes):  RWF=    119 Int=      0 D2E=      0 Chk=      2 Scr=      1
 Normal termination of Gaussian 09 at Wed Jul 10 17:19:58 2013.
