(R)-3-chloro-1-butene tau=120                                           
SP        RB3LYP                                                      6-311++G(d,p)       
Number of atoms                            I               12
Info1-9                                    I   N=           9
          26          26           0           0           0         110
           1          18        -502
Full Title                                 C   N=           3
(R)-3-chloro-1-butene tau=120       
Route                                      C   N=           7
#P B3LYP/6-311++G** scf(conver=11) int=ultrafine polar=optro
t cphf(rdfreq,conver=11)
Charge                                     I                0
Multiplicity                               I                1
Number of electrons                        I               48
Number of alpha electrons                  I               24
Number of beta electrons                   I               24
Number of basis functions                  I              167
Number of independent functions            I              167
Number of point charges in /Mol/           I                0
Number of translation vectors              I                0
Atomic numbers                             I   N=          12
           6           6           6           6           1           1
           1           1           1           1           1          17
Nuclear charges                            R   N=          12
  6.00000000E+00  6.00000000E+00  6.00000000E+00  6.00000000E+00  1.00000000E+00
  1.00000000E+00  1.00000000E+00  1.00000000E+00  1.00000000E+00  1.00000000E+00
  1.00000000E+00  1.70000000E+01
Current cartesian coordinates              R   N=          36
  8.85804477E-01  3.31568680E+00  9.06927570E-02  1.66854471E-02  6.72598731E-01
 -6.20949839E-01 -2.27606919E+00 -1.82770634E-01  7.82550334E-01 -4.40014424E+00
 -9.39708312E-01 -2.86789781E-01 -4.50739868E+00 -1.01916205E+00 -2.33507416E+00
  2.58258949E+00  3.80863579E+00 -9.72665823E-01 -6.05432111E+00 -1.49382348E+00
  7.82783557E-01 -2.30033586E+00 -1.80945830E-01  2.84339036E+00 -3.07528883E-01
  4.10909018E-01 -2.63980667E+00  1.27518713E+00  3.47538354E+00  2.10989441E+00
 -6.03850500E-01  4.65556741E+00 -4.22714510E-01  2.62105879E+00 -1.57949435E+00
  4.94807061E-02
Number of symbols in /Mol/                 I                0
Force Field                                I                0
Atom Types                                 C   N=          12
                                                            
                                                            
                        
Int Atom Types                             I   N=          12
           0           0           0           0           0           0
           0           0           0           0           0           0
MM charges                                 R   N=          12
  0.00000000E+00  0.00000000E+00  0.00000000E+00  0.00000000E+00  0.00000000E+00
  0.00000000E+00  0.00000000E+00  0.00000000E+00  0.00000000E+00  0.00000000E+00
  0.00000000E+00  0.00000000E+00
Integer atomic weights                     I   N=          12
          12          12          12          12           1           1
           1           1           1           1           1          35
Real atomic weights                        R   N=          12
  1.20000000E+01  1.20000000E+01  1.20000000E+01  1.20000000E+01  1.00782504E+00
  1.00782504E+00  1.00782504E+00  1.00782504E+00  1.00782504E+00  1.00782504E+00
  1.00782504E+00  3.49688527E+01
Atom fragment info                         I   N=          12
           0           0           0           0           0           0
           0           0           0           0           0           0
Atom residue num                           I   N=          12
           0           0           0           0           0           0
           0           0           0           0           0           0
Nuclear spins                              I   N=          12
           0           0           0           0           1           1
           1           1           1           1           1           3
Nuclear ZEff                               R   N=          12
 -3.60000000E+00 -3.60000000E+00 -3.60000000E+00 -3.60000000E+00 -1.00000000E+00
 -1.00000000E+00 -1.00000000E+00 -1.00000000E+00 -1.00000000E+00 -1.00000000E+00
 -1.00000000E+00 -1.42400000E+01
Nuclear ZNuc                               R   N=          12
  6.00000000E+00  6.00000000E+00  6.00000000E+00  6.00000000E+00  1.00000000E+00
  1.00000000E+00  1.00000000E+00  1.00000000E+00  1.00000000E+00  1.00000000E+00
  1.00000000E+00  1.70000000E+01
Nuclear QMom                               R   N=          12
  0.00000000E+00  0.00000000E+00  0.00000000E+00  0.00000000E+00  0.00000000E+00
  0.00000000E+00  0.00000000E+00  0.00000000E+00  0.00000000E+00  0.00000000E+00
  0.00000000E+00 -8.16500000E+00
Nuclear GFac                               R   N=          12
  0.00000000E+00  0.00000000E+00  0.00000000E+00  0.00000000E+00  2.79284600E+00
  2.79284600E+00  2.79284600E+00  2.79284600E+00  2.79284600E+00  2.79284600E+00
  2.79284600E+00  8.21874000E-01
MicOpt                                     I   N=          12
          -1          -1          -1          -1          -1          -1
          -1          -1          -1          -1          -1          -1
Number of residues                         I                0
Number of secondary structures             I                0
SymInf integers                            I   N=          26
           1           1           1           1           1           0
           0           0           0           0           0           0
           0           0           0           0           0           0
           0           0           0           0           0           0
           0           0
RotTr to input orientation                 R   N=          12
  9.99995882E-01 -5.62877969E-04 -2.81403912E-03  5.60551374E-04  9.99999501E-01
 -8.27501676E-04  2.81450349E-03  8.25920855E-04  9.99995698E-01 -1.34280317E-03
 -1.39546748E-03 -3.57927121E-04
Number of contracted shells                I               72
Number of primitive shells                 I              126
Pure/Cartesian d shells                    I                0
Pure/Cartesian f shells                    I                0
Highest angular momentum                   I                2
Largest degree of contraction              I                6
Shell types                                I   N=          72
           0          -1          -1          -1          -1          -2
           0          -1          -1          -1          -1          -2
           0          -1          -1          -1          -1          -2
           0          -1          -1          -1          -1          -2
           0           0           0           0           1           0
           0           0           0           1           0           0
           0           0           1           0           0           0
           0           1           0           0           0           0
           1           0           0           0           0           1
           0           0           0           0           1           0
           0           0           0           0           0          -1
           1           1           1           1           1          -2
Number of primitives per shell             I   N=          72
           6           3           1           1           1           1
           6           3           1           1           1           1
           6           3           1           1           1           1
           6           3           1           1           1           1
           3           1           1           1           1           3
           1           1           1           1           3           1
           1           1           1           3           1           1
           1           1           3           1           1           1
           1           3           1           1           1           1
           3           1           1           1           1           6
           3           1           1           1           1           1
           5           2           1           1           1           1
Shell to atom map                          I   N=          72
           1           1           1           1           1           1
           2           2           2           2           2           2
           3           3           3           3           3           3
           4           4           4           4           4           4
           5           5           5           5           5           6
           6           6           6           6           7           7
           7           7           7           8           8           8
           8           8           9           9           9           9
           9          10          10          10          10          10
          11          11          11          11          11          12
          12          12          12          12          12          12
          12          12          12          12          12          12
Primitive exponents                        R   N=         126
  4.56324000E+03  6.82024000E+02  1.54973000E+02  4.44553000E+01  1.30290000E+01
  1.82773000E+00  2.09642000E+01  4.80331000E+00  1.45933000E+00  4.83456000E-01
  1.45585000E-01  4.38000000E-02  6.26000000E-01  4.56324000E+03  6.82024000E+02
  1.54973000E+02  4.44553000E+01  1.30290000E+01  1.82773000E+00  2.09642000E+01
  4.80331000E+00  1.45933000E+00  4.83456000E-01  1.45585000E-01  4.38000000E-02
  6.26000000E-01  4.56324000E+03  6.82024000E+02  1.54973000E+02  4.44553000E+01
  1.30290000E+01  1.82773000E+00  2.09642000E+01  4.80331000E+00  1.45933000E+00
  4.83456000E-01  1.45585000E-01  4.38000000E-02  6.26000000E-01  4.56324000E+03
  6.82024000E+02  1.54973000E+02  4.44553000E+01  1.30290000E+01  1.82773000E+00
  2.09642000E+01  4.80331000E+00  1.45933000E+00  4.83456000E-01  1.45585000E-01
  4.38000000E-02  6.26000000E-01  3.38650000E+01  5.09479000E+00  1.15879000E+00
  3.25840000E-01  1.02741000E-01  3.60000000E-02  7.50000000E-01  3.38650000E+01
  5.09479000E+00  1.15879000E+00  3.25840000E-01  1.02741000E-01  3.60000000E-02
  7.50000000E-01  3.38650000E+01  5.09479000E+00  1.15879000E+00  3.25840000E-01
  1.02741000E-01  3.60000000E-02  7.50000000E-01  3.38650000E+01  5.09479000E+00
  1.15879000E+00  3.25840000E-01  1.02741000E-01  3.60000000E-02  7.50000000E-01
  3.38650000E+01  5.09479000E+00  1.15879000E+00  3.25840000E-01  1.02741000E-01
  3.60000000E-02  7.50000000E-01  3.38650000E+01  5.09479000E+00  1.15879000E+00
  3.25840000E-01  1.02741000E-01  3.60000000E-02  7.50000000E-01  3.38650000E+01
  5.09479000E+00  1.15879000E+00  3.25840000E-01  1.02741000E-01  3.60000000E-02
  7.50000000E-01  1.05819000E+05  1.58720000E+04  3.61965000E+03  1.03080000E+03
  3.39908000E+02  1.24538000E+02  1.24538000E+02  4.95135000E+01  2.08056000E+01
  6.58346000E+00  2.56468000E+00  5.59763000E-01  1.83273000E-01  4.83000000E-02
  5.89776000E+02  1.39849000E+02  4.51413000E+01  1.68733000E+01  2.77152000E+00
  6.74110000E+00  2.77152000E+00  1.02387000E+00  3.81368000E-01  1.09437000E-01
  7.50000000E-01
Contraction coefficients                   R   N=         126
  1.96665025E-03  1.52306019E-02  7.61269097E-02  2.60801033E-01  6.16462078E-01
  2.21006028E-01  1.14660081E-01  9.19999648E-01 -3.03068213E-03  1.00000000E+00
  1.00000000E+00  1.00000000E+00  1.00000000E+00  1.96665025E-03  1.52306019E-02
  7.61269097E-02  2.60801033E-01  6.16462078E-01  2.21006028E-01  1.14660081E-01
  9.19999648E-01 -3.03068213E-03  1.00000000E+00  1.00000000E+00  1.00000000E+00
  1.00000000E+00  1.96665025E-03  1.52306019E-02  7.61269097E-02  2.60801033E-01
  6.16462078E-01  2.21006028E-01  1.14660081E-01  9.19999648E-01 -3.03068213E-03
  1.00000000E+00  1.00000000E+00  1.00000000E+00  1.00000000E+00  1.96665025E-03
  1.52306019E-02  7.61269097E-02  2.60801033E-01  6.16462078E-01  2.21006028E-01
  1.14660081E-01  9.19999648E-01 -3.03068213E-03  1.00000000E+00  1.00000000E+00
  1.00000000E+00  1.00000000E+00  2.54938145E-02  1.90373109E-01  8.52161486E-01
  1.00000000E+00  1.00000000E+00  1.00000000E+00  1.00000000E+00  2.54938145E-02
  1.90373109E-01  8.52161486E-01  1.00000000E+00  1.00000000E+00  1.00000000E+00
  1.00000000E+00  2.54938145E-02  1.90373109E-01  8.52161486E-01  1.00000000E+00
  1.00000000E+00  1.00000000E+00  1.00000000E+00  2.54938145E-02  1.90373109E-01
  8.52161486E-01  1.00000000E+00  1.00000000E+00  1.00000000E+00  1.00000000E+00
  2.54938145E-02  1.90373109E-01  8.52161486E-01  1.00000000E+00  1.00000000E+00
  1.00000000E+00  1.00000000E+00  2.54938145E-02  1.90373109E-01  8.52161486E-01
  1.00000000E+00  1.00000000E+00  1.00000000E+00  1.00000000E+00  2.54938145E-02
  1.90373109E-01  8.52161486E-01  1.00000000E+00  1.00000000E+00  1.00000000E+00
  1.00000000E+00  7.38000247E-04  5.71800191E-03  2.94950099E-02  1.17286039E-01
  3.62949121E-01  5.84149195E-01  1.34176973E-01  6.24249876E-01  2.91755942E-01
  1.00000000E+00  1.00000000E+00  1.00000000E+00  1.00000000E+00  1.00000000E+00
  3.66556935E-03  2.83679194E-02  1.24756603E-01  3.39654631E-01  7.47585963E-01
 -1.57224381E+00  9.92388882E-01  1.00000000E+00  1.00000000E+00  1.00000000E+00
  1.00000000E+00
P(S=P) Contraction coefficients            R   N=         126
  0.00000000E+00  0.00000000E+00  0.00000000E+00  0.00000000E+00  0.00000000E+00
  0.00000000E+00  4.02486927E-02  2.37593957E-01  8.15853851E-01  1.00000000E+00
  1.00000000E+00  1.00000000E+00  0.00000000E+00  0.00000000E+00  0.00000000E+00
  0.00000000E+00  0.00000000E+00  0.00000000E+00  0.00000000E+00  4.02486927E-02
  2.37593957E-01  8.15853851E-01  1.00000000E+00  1.00000000E+00  1.00000000E+00
  0.00000000E+00  0.00000000E+00  0.00000000E+00  0.00000000E+00  0.00000000E+00
  0.00000000E+00  0.00000000E+00  4.02486927E-02  2.37593957E-01  8.15853851E-01
  1.00000000E+00  1.00000000E+00  1.00000000E+00  0.00000000E+00  0.00000000E+00
  0.00000000E+00  0.00000000E+00  0.00000000E+00  0.00000000E+00  0.00000000E+00
  4.02486927E-02  2.37593957E-01  8.15853851E-01  1.00000000E+00  1.00000000E+00
  1.00000000E+00  0.00000000E+00  0.00000000E+00  0.00000000E+00  0.00000000E+00
  0.00000000E+00  0.00000000E+00  0.00000000E+00  0.00000000E+00  0.00000000E+00
  0.00000000E+00  0.00000000E+00  0.00000000E+00  0.00000000E+00  0.00000000E+00
  0.00000000E+00  0.00000000E+00  0.00000000E+00  0.00000000E+00  0.00000000E+00
  0.00000000E+00  0.00000000E+00  0.00000000E+00  0.00000000E+00  0.00000000E+00
  0.00000000E+00  0.00000000E+00  0.00000000E+00  0.00000000E+00  0.00000000E+00
  0.00000000E+00  0.00000000E+00  0.00000000E+00  0.00000000E+00  0.00000000E+00
  0.00000000E+00  0.00000000E+00  0.00000000E+00  0.00000000E+00  0.00000000E+00
  0.00000000E+00  0.00000000E+00  0.00000000E+00  0.00000000E+00  0.00000000E+00
  0.00000000E+00  0.00000000E+00  0.00000000E+00  0.00000000E+00  0.00000000E+00
  0.00000000E+00  0.00000000E+00  0.00000000E+00  0.00000000E+00  0.00000000E+00
  0.00000000E+00  0.00000000E+00  0.00000000E+00  0.00000000E+00  0.00000000E+00
  0.00000000E+00  0.00000000E+00  0.00000000E+00  0.00000000E+00  1.00000000E+00
  0.00000000E+00  0.00000000E+00  0.00000000E+00  0.00000000E+00  0.00000000E+00
  0.00000000E+00  0.00000000E+00  0.00000000E+00  0.00000000E+00  0.00000000E+00
  0.00000000E+00
Coordinates of each shell                  R   N=         216
  8.85804477E-01  3.31568680E+00  9.06927570E-02  8.85804477E-01  3.31568680E+00
  9.06927570E-02  8.85804477E-01  3.31568680E+00  9.06927570E-02  8.85804477E-01
  3.31568680E+00  9.06927570E-02  8.85804477E-01  3.31568680E+00  9.06927570E-02
  8.85804477E-01  3.31568680E+00  9.06927570E-02  1.66854471E-02  6.72598731E-01
 -6.20949839E-01  1.66854471E-02  6.72598731E-01 -6.20949839E-01  1.66854471E-02
  6.72598731E-01 -6.20949839E-01  1.66854471E-02  6.72598731E-01 -6.20949839E-01
  1.66854471E-02  6.72598731E-01 -6.20949839E-01  1.66854471E-02  6.72598731E-01
 -6.20949839E-01 -2.27606919E+00 -1.82770634E-01  7.82550334E-01 -2.27606919E+00
 -1.82770634E-01  7.82550334E-01 -2.27606919E+00 -1.82770634E-01  7.82550334E-01
 -2.27606919E+00 -1.82770634E-01  7.82550334E-01 -2.27606919E+00 -1.82770634E-01
  7.82550334E-01 -2.27606919E+00 -1.82770634E-01  7.82550334E-01 -4.40014424E+00
 -9.39708312E-01 -2.86789781E-01 -4.40014424E+00 -9.39708312E-01 -2.86789781E-01
 -4.40014424E+00 -9.39708312E-01 -2.86789781E-01 -4.40014424E+00 -9.39708312E-01
 -2.86789781E-01 -4.40014424E+00 -9.39708312E-01 -2.86789781E-01 -4.40014424E+00
 -9.39708312E-01 -2.86789781E-01 -4.50739868E+00 -1.01916205E+00 -2.33507416E+00
 -4.50739868E+00 -1.01916205E+00 -2.33507416E+00 -4.50739868E+00 -1.01916205E+00
 -2.33507416E+00 -4.50739868E+00 -1.01916205E+00 -2.33507416E+00 -4.50739868E+00
 -1.01916205E+00 -2.33507416E+00  2.58258949E+00  3.80863579E+00 -9.72665823E-01
  2.58258949E+00  3.80863579E+00 -9.72665823E-01  2.58258949E+00  3.80863579E+00
 -9.72665823E-01  2.58258949E+00  3.80863579E+00 -9.72665823E-01  2.58258949E+00
  3.80863579E+00 -9.72665823E-01 -6.05432111E+00 -1.49382348E+00  7.82783557E-01
 -6.05432111E+00 -1.49382348E+00  7.82783557E-01 -6.05432111E+00 -1.49382348E+00
  7.82783557E-01 -6.05432111E+00 -1.49382348E+00  7.82783557E-01 -6.05432111E+00
 -1.49382348E+00  7.82783557E-01 -2.30033586E+00 -1.80945830E-01  2.84339036E+00
 -2.30033586E+00 -1.80945830E-01  2.84339036E+00 -2.30033586E+00 -1.80945830E-01
  2.84339036E+00 -2.30033586E+00 -1.80945830E-01  2.84339036E+00 -2.30033586E+00
 -1.80945830E-01  2.84339036E+00 -3.07528883E-01  4.10909018E-01 -2.63980667E+00
 -3.07528883E-01  4.10909018E-01 -2.63980667E+00 -3.07528883E-01  4.10909018E-01
 -2.63980667E+00 -3.07528883E-01  4.10909018E-01 -2.63980667E+00 -3.07528883E-01
  4.10909018E-01 -2.63980667E+00  1.27518713E+00  3.47538354E+00  2.10989441E+00
  1.27518713E+00  3.47538354E+00  2.10989441E+00  1.27518713E+00  3.47538354E+00
  2.10989441E+00  1.27518713E+00  3.47538354E+00  2.10989441E+00  1.27518713E+00
  3.47538354E+00  2.10989441E+00 -6.03850500E-01  4.65556741E+00 -4.22714510E-01
 -6.03850500E-01  4.65556741E+00 -4.22714510E-01 -6.03850500E-01  4.65556741E+00
 -4.22714510E-01 -6.03850500E-01  4.65556741E+00 -4.22714510E-01 -6.03850500E-01
  4.65556741E+00 -4.22714510E-01  2.62105879E+00 -1.57949435E+00  4.94807061E-02
  2.62105879E+00 -1.57949435E+00  4.94807061E-02  2.62105879E+00 -1.57949435E+00
  4.94807061E-02  2.62105879E+00 -1.57949435E+00  4.94807061E-02  2.62105879E+00
 -1.57949435E+00  4.94807061E-02  2.62105879E+00 -1.57949435E+00  4.94807061E-02
  2.62105879E+00 -1.57949435E+00  4.94807061E-02  2.62105879E+00 -1.57949435E+00
  4.94807061E-02  2.62105879E+00 -1.57949435E+00  4.94807061E-02  2.62105879E+00
 -1.57949435E+00  4.94807061E-02  2.62105879E+00 -1.57949435E+00  4.94807061E-02
  2.62105879E+00 -1.57949435E+00  4.94807061E-02  2.62105879E+00 -1.57949435E+00
  4.94807061E-02
Constraint Structure                       R   N=          36
  8.85804477E-01  3.31568680E+00  9.06927570E-02  1.66854471E-02  6.72598731E-01
 -6.20949839E-01 -2.27606919E+00 -1.82770634E-01  7.82550334E-01 -4.40014424E+00
 -9.39708312E-01 -2.86789781E-01 -4.50739868E+00 -1.01916205E+00 -2.33507416E+00
  2.58258949E+00  3.80863579E+00 -9.72665823E-01 -6.05432111E+00 -1.49382348E+00
  7.82783557E-01 -2.30033586E+00 -1.80945830E-01  2.84339036E+00 -3.07528883E-01
  4.10909018E-01 -2.63980667E+00  1.27518713E+00  3.47538354E+00  2.10989441E+00
 -6.03850500E-01  4.65556741E+00 -4.22714510E-01  2.62105879E+00 -1.57949435E+00
  4.94807061E-02
Num ILSW                                   I              100
ILSW                                       I   N=         100
           0           0           0           0           2           0
           0           0           0           0         402          -1
           5           0           0           0           0           0
           0           0           0           0           0           0
           1           0           0           0           0           0
           0           0      100000           0          -1           0
           0           0           0           0           0           0
           0           0           0           1           0           0
           0           0           1           0           0           0
           0           0           4          41           0           0
           0           0           5           0           0           0
           0           0           0           0           0           0
           0           0           0           0           0           0
           0           0           0           0           0           0
           0           0           0           0           0           0
           0           0           0           0           0           0
           0           0           0           0
Num RLSW                                   I               41
RLSW                                       R   N=          41
  8.00000000E-01  7.20000000E-01  1.00000000E+00  8.10000000E-01  2.00000000E-01
  0.00000000E+00  0.00000000E+00  1.00000000E+00  0.00000000E+00  0.00000000E+00
  0.00000000E+00  0.00000000E+00  1.00000000E+00  0.00000000E+00  0.00000000E+00
  0.00000000E+00  0.00000000E+00  1.00000000E+00  0.00000000E+00  0.00000000E+00
  0.00000000E+00  0.00000000E+00  1.00000000E+00  0.00000000E+00  0.00000000E+00
  0.00000000E+00  0.00000000E+00  1.00000000E+00  0.00000000E+00  0.00000000E+00
  0.00000000E+00  0.00000000E+00  0.00000000E+00  0.00000000E+00  0.00000000E+00
  0.00000000E+00  0.00000000E+00  0.00000000E+00  1.00000000E+00  1.00000000E+00
  0.00000000E+00
MxBond                                     I                4
NBond                                      I   N=          12
           4           4           3           3           1           1
           1           1           1           1           1           1
IBond                                      I   N=          48
           2           6          10          11           1           3
           9          12           2           4           8           0
           3           5           7           0           4           0
           0           0           1           0           0           0
           4           0           0           0           3           0
           0           0           2           0           0           0
           1           0           0           0           1           0
           0           0           2           0           0           0
RBond                                      R   N=          48
  1.00000000E+00  1.00000000E+00  1.00000000E+00  1.00000000E+00  1.00000000E+00
  1.00000000E+00  1.00000000E+00  1.00000000E+00  1.00000000E+00  2.00000000E+00
  1.00000000E+00  0.00000000E+00  2.00000000E+00  1.00000000E+00  1.00000000E+00
  0.00000000E+00  1.00000000E+00  0.00000000E+00  0.00000000E+00  0.00000000E+00
  1.00000000E+00  0.00000000E+00  0.00000000E+00  0.00000000E+00  1.00000000E+00
  0.00000000E+00  0.00000000E+00  0.00000000E+00  1.00000000E+00  0.00000000E+00
  0.00000000E+00  0.00000000E+00  1.00000000E+00  0.00000000E+00  0.00000000E+00
  0.00000000E+00  1.00000000E+00  0.00000000E+00  0.00000000E+00  0.00000000E+00
  1.00000000E+00  0.00000000E+00  0.00000000E+00  0.00000000E+00  1.00000000E+00
  0.00000000E+00  0.00000000E+00  0.00000000E+00
Virial Ratio                               R      2.002999153709503E+00
SCF Energy                                 R     -6.168938461393306E+02
Total Energy                               R     -6.168938461393306E+02
RMS Density                                R      6.713055697541980E-12
Nuclear derivative order                   I                0
External E-field                           R   N=          35
  0.00000000E+00  0.00000000E+00  0.00000000E+00  0.00000000E+00  0.00000000E+00
  0.00000000E+00  0.00000000E+00  0.00000000E+00  0.00000000E+00  0.00000000E+00
  0.00000000E+00  0.00000000E+00  0.00000000E+00  0.00000000E+00  0.00000000E+00
  0.00000000E+00  0.00000000E+00  0.00000000E+00  0.00000000E+00  0.00000000E+00
  0.00000000E+00  0.00000000E+00  0.00000000E+00  0.00000000E+00  0.00000000E+00
  0.00000000E+00  0.00000000E+00  0.00000000E+00  0.00000000E+00  0.00000000E+00
  0.00000000E+00  0.00000000E+00  0.00000000E+00  0.00000000E+00  0.00000000E+00
IOpCl                                      I                0
IROHF                                      I                0
Alpha Orbital Energies                     R   N=         167
 -1.01533571E+02 -1.02496873E+01 -1.01911570E+01 -1.01824443E+01 -1.01810230E+01
 -9.44802332E+00 -7.21236314E+00 -7.20292493E+00 -7.20278674E+00 -8.67965531E-01
 -7.88812007E-01 -7.43848320E-01 -6.40230940E-01 -5.75580418E-01 -4.86800283E-01
 -4.77505529E-01 -4.45942742E-01 -4.17996196E-01 -4.00836062E-01 -3.74465678E-01
 -3.67319162E-01 -3.06009019E-01 -2.98789587E-01 -2.81180910E-01 -3.11228657E-02
 -7.50483311E-03  6.32902307E-03  6.90107439E-03  2.27464778E-02  2.82116414E-02
  3.85213910E-02  4.13559149E-02  6.37859766E-02  6.42430223E-02  7.26360164E-02
  8.32049276E-02  8.71143064E-02  9.84683212E-02  1.10956626E-01  1.16318924E-01
  1.17819665E-01  1.22157142E-01  1.28520807E-01  1.31264804E-01  1.35302557E-01
  1.42511457E-01  1.50182522E-01  1.56817070E-01  1.61856223E-01  1.65230784E-01
  1.70362152E-01  1.86943748E-01  1.91888604E-01  2.13910068E-01  2.19457866E-01
  2.26509237E-01  2.46040425E-01  2.57785303E-01  2.75152133E-01  2.90602008E-01
  3.39173351E-01  3.60586566E-01  3.93269416E-01  4.25652439E-01  4.30188746E-01
  4.50844720E-01  4.61477783E-01  4.79414006E-01  4.87903093E-01  4.95027317E-01
  5.23897055E-01  5.30723261E-01  5.65308881E-01  5.88076050E-01  6.00795884E-01
  6.23774392E-01  6.31804864E-01  6.46492584E-01  6.53296350E-01  6.59885644E-01
  6.90500626E-01  7.06493751E-01  7.39936478E-01  7.45706062E-01  7.92594108E-01
  8.18586841E-01  8.30708269E-01  8.67029310E-01  8.89557254E-01  9.05382963E-01
  9.43109882E-01  9.64212359E-01  1.00787834E+00  1.03250286E+00  1.06487152E+00
  1.08153578E+00  1.13360531E+00  1.18240494E+00  1.19808371E+00  1.28632340E+00
  1.38898875E+00  1.41974858E+00  1.44882172E+00  1.46901303E+00  1.50631845E+00
  1.53762076E+00  1.56315087E+00  1.58589926E+00  1.60069124E+00  1.62617197E+00
  1.67665016E+00  1.69148792E+00  1.70454627E+00  1.72445963E+00  1.77554545E+00
  1.79198386E+00  1.86798611E+00  1.88707799E+00  1.93517528E+00  1.98724177E+00
  2.02310009E+00  2.06380944E+00  2.12431906E+00  2.16969091E+00  2.21001440E+00
  2.21778338E+00  2.26402763E+00  2.29352562E+00  2.30555576E+00  2.34906393E+00
  2.36958683E+00  2.45589601E+00  2.46060375E+00  2.49534600E+00  2.52569244E+00
  2.56513673E+00  2.57858953E+00  2.59280016E+00  2.60647536E+00  2.64635493E+00
  2.71992161E+00  2.73439617E+00  2.74615129E+00  2.77975095E+00  2.86215864E+00
  2.87036209E+00  2.93221344E+00  3.06853858E+00  3.08680131E+00  3.18392520E+00
  3.39603198E+00  3.53110378E+00  3.72139532E+00  3.79297495E+00  3.80069847E+00
  3.94634283E+00  4.12144970E+00  4.27584958E+00  9.75576974E+00  2.37105022E+01
  2.37951483E+01  2.39455366E+01  2.42941679E+01  2.59284374E+01  2.59795321E+01
  2.64468738E+01  2.15745966E+02
Alpha MO coefficients                      R   N=       27889
  1.61403714E-07 -3.40790122E-07 -2.55334422E-06 -1.86651352E-06 -9.82331961E-07
 -2.38689958E-08  1.93047765E-05  1.42783135E-05  8.32720459E-06  1.76003196E-05
  3.26675886E-05  3.02014288E-05  1.89314709E-05 -1.68548903E-03 -1.47308115E-04
  5.08231856E-04  3.54714127E-05  7.98805040E-06 -3.52336462E-06 -3.72503761E-06
  1.28404401E-05  4.34370015E-07  1.41827492E-06 -2.92694414E-06  1.21246862E-05
 -1.16934933E-05  4.74966318E-06 -1.53068321E-05 -1.38110643E-05  1.88749799E-05
 -1.59930098E-05  1.48390043E-04  1.36633128E-04 -1.25051495E-04  3.13733131E-06
  3.69035158E-03 -4.79368766E-04  4.53093738E-04  8.28332992E-04  8.13846195E-06
 -1.45763111E-06  4.11715478E-06 -2.39707555E-06  7.19532159E-06 -7.07100118E-07
  2.04828732E-06  4.53761898E-06 -2.38687178E-06 -4.38382357E-06 -9.57690001E-06
 -2.71838217E-05  8.71628165E-06  2.46431163E-05  3.45020299E-05  9.11437474E-06
 -1.02077350E-05 -9.56502726E-05 -1.00172992E-03 -1.19388598E-03 -3.79250878E-04
 -1.51230162E-04  4.58587817E-06  4.81126157E-06 -6.42975562E-06  6.94208198E-07
 -4.12394857E-06  3.67805775E-07 -1.08233768E-06 -1.55489293E-06  7.07487693E-07
  8.75814620E-07  1.11180271E-05  6.75591603E-06 -2.94004391E-06  1.09249075E-06
 -8.03815671E-05 -1.06368088E-04 -2.79222460E-05  7.63727791E-05 -1.75379856E-03
 -3.74544499E-04 -1.91349731E-04 -9.25108773E-05 -5.45362306E-06 -2.58088945E-06
 -3.85112900E-06 -1.73634264E-06 -1.78126853E-06 -3.29529507E-06  3.99634124E-05
  7.46949335E-05  7.10233771E-05  6.33738197E-06  9.27914978E-08  7.07827198E-06
  1.21490286E-05 -8.31025817E-05  7.82346756E-05  2.28009309E-04  8.16584938E-06
  1.31565217E-05 -1.07430371E-05  2.70210789E-06 -2.74291531E-05 -6.45831509E-05
 -1.52003342E-04 -1.89383411E-06 -5.37197538E-07  1.78131091E-06  3.98906635E-06
 -1.78246175E-05  7.39123136E-05  1.61266247E-04 -9.75514614E-06  1.87797977E-06
  1.06760438E-05 -2.03527663E-06 -5.16202352E-05 -1.18566743E-04  1.18669805E-04
 -4.98967437E-06  1.78394930E-06 -1.35569654E-05  1.01115507E-05 -6.32510040E-05
 -1.27477020E-05  8.07288165E-05 -4.47687041E-06  1.21398798E-05  1.50093080E-05
 -7.64144343E-06  3.81858793E-05 -1.40698029E-04 -3.09860483E-04  6.17757397E-07
 -5.20937489E-06 -7.28117917E-07  4.11609634E-01  6.54076193E-01  1.50039074E-02