(R)-3-chloro-1-butene tau=120                                           
SP        RB3LYP                                                      6-311++G(d,p)       
Number of atoms                            I               12
Info1-9                                    I   N=           9
          26          26           0           0           0         110
           1          18        -502
Full Title                                 C   N=           3
(R)-3-chloro-1-butene tau=120       
Route                                      C   N=           7
#P B3LYP/6-311++G** scf(conver=11) int=ultrafine polar=optro
t cphf(rdfreq,conver=11)
Charge                                     I                0
Multiplicity                               I                1
Number of electrons                        I               48
Number of alpha electrons                  I               24
Number of beta electrons                   I               24
Number of basis functions                  I              167
Number of independent functions            I              167
Number of point charges in /Mol/           I                0
Number of translation vectors              I                0
Atomic numbers                             I   N=          12
           6           6           6           6           1           1
           1           1           1           1           1          17
Nuclear charges                            R   N=          12
  6.00000000E+00  6.00000000E+00  6.00000000E+00  6.00000000E+00  1.00000000E+00
  1.00000000E+00  1.00000000E+00  1.00000000E+00  1.00000000E+00  1.00000000E+00
  1.00000000E+00  1.70000000E+01
Current cartesian coordinates              R   N=          36
  8.86109949E-01  3.34744851E+00  8.82619661E-02  8.03047835E-03  6.62218245E-01
 -6.11413778E-01 -2.27735634E+00 -1.86636107E-01  8.08431411E-01 -4.40453585E+00
 -9.48221633E-01 -2.97280582E-01 -4.59037806E+00 -1.04590535E+00 -2.33810627E+00
  2.60184236E+00  3.72739599E+00 -9.94738090E-01 -6.03860377E+00 -1.50554584E+00
  8.04619213E-01 -2.12809409E+00 -1.20613891E-01  2.85732921E+00 -2.84875962E-01
  5.05412428E-01 -2.64373869E+00  1.25316476E+00  3.35087179E+00  2.12198956E+00
 -6.92784710E-01  4.58106692E+00 -4.33706602E-01  2.62389648E+00 -1.57303154E+00
  4.10798564E-02
Number of symbols in /Mol/                 I                0
Force Field                                I                0
Atom Types                                 C   N=          12
                                                            
                                                            
                        
Int Atom Types                             I   N=          12
           0           0           0           0           0           0
           0           0           0           0           0           0
MM charges                                 R   N=          12
  0.00000000E+00  0.00000000E+00  0.00000000E+00  0.00000000E+00  0.00000000E+00
  0.00000000E+00  0.00000000E+00  0.00000000E+00  0.00000000E+00  0.00000000E+00
  0.00000000E+00  0.00000000E+00
Integer atomic weights                     I   N=          12
          12          12          12          12           1           1
           1           1           1           1           1          35
Real atomic weights                        R   N=          12
  1.20000000E+01  1.20000000E+01  1.20000000E+01  1.20000000E+01  1.00782504E+00
  1.00782504E+00  1.00782504E+00  1.00782504E+00  1.00782504E+00  1.00782504E+00
  1.00782504E+00  3.49688527E+01
Atom fragment info                         I   N=          12
           0           0           0           0           0           0
           0           0           0           0           0           0
Atom residue num                           I   N=          12
           0           0           0           0           0           0
           0           0           0           0           0           0
Nuclear spins                              I   N=          12
           0           0           0           0           1           1
           1           1           1           1           1           3
Nuclear ZEff                               R   N=          12
 -3.60000000E+00 -3.60000000E+00 -3.60000000E+00 -3.60000000E+00 -1.00000000E+00
 -1.00000000E+00 -1.00000000E+00 -1.00000000E+00 -1.00000000E+00 -1.00000000E+00
 -1.00000000E+00 -1.42400000E+01
Nuclear ZNuc                               R   N=          12
  6.00000000E+00  6.00000000E+00  6.00000000E+00  6.00000000E+00  1.00000000E+00
  1.00000000E+00  1.00000000E+00  1.00000000E+00  1.00000000E+00  1.00000000E+00
  1.00000000E+00  1.70000000E+01
Nuclear QMom                               R   N=          12
  0.00000000E+00  0.00000000E+00  0.00000000E+00  0.00000000E+00  0.00000000E+00
  0.00000000E+00  0.00000000E+00  0.00000000E+00  0.00000000E+00  0.00000000E+00
  0.00000000E+00 -8.16500000E+00
Nuclear GFac                               R   N=          12
  0.00000000E+00  0.00000000E+00  0.00000000E+00  0.00000000E+00  2.79284600E+00
  2.79284600E+00  2.79284600E+00  2.79284600E+00  2.79284600E+00  2.79284600E+00
  2.79284600E+00  8.21874000E-01
MicOpt                                     I   N=          12
          -1          -1          -1          -1          -1          -1
          -1          -1          -1          -1          -1          -1
Number of residues                         I                0
Number of secondary structures             I                0
SymInf integers                            I   N=          26
           1           1           1           1           1           0
           0           0           0           0           0           0
           0           0           0           0           0           0
           0           0           0           0           0           0
           0           0
RotTr to input orientation                 R   N=          12
  9.99997005E-01 -2.44591492E-03 -9.08004080E-05  2.44573218E-03  9.99995087E-01
 -1.96084845E-03  9.55960303E-05  1.96062050E-03  9.99998073E-01 -7.28949651E-04
 -3.02192720E-03 -6.91771258E-04
Number of contracted shells                I               72
Number of primitive shells                 I              126
Pure/Cartesian d shells                    I                0
Pure/Cartesian f shells                    I                0
Highest angular momentum                   I                2
Largest degree of contraction              I                6
Shell types                                I   N=          72
           0          -1          -1          -1          -1          -2
           0          -1          -1          -1          -1          -2
           0          -1          -1          -1          -1          -2
           0          -1          -1          -1          -1          -2
           0           0           0           0           1           0
           0           0           0           1           0           0
           0           0           1           0           0           0
           0           1           0           0           0           0
           1           0           0           0           0           1
           0           0           0           0           1           0
           0           0           0           0           0          -1
           1           1           1           1           1          -2
Number of primitives per shell             I   N=          72
           6           3           1           1           1           1
           6           3           1           1           1           1
           6           3           1           1           1           1
           6           3           1           1           1           1
           3           1           1           1           1           3
           1           1           1           1           3           1
           1           1           1           3           1           1
           1           1           3           1           1           1
           1           3           1           1           1           1
           3           1           1           1           1           6
           3           1           1           1           1           1
           5           2           1           1           1           1
Shell to atom map                          I   N=          72
           1           1           1           1           1           1
           2           2           2           2           2           2
           3           3           3           3           3           3
           4           4           4           4           4           4
           5           5           5           5           5           6
           6           6           6           6           7           7
           7           7           7           8           8           8
           8           8           9           9           9           9
           9          10          10          10          10          10
          11          11          11          11          11          12
          12          12          12          12          12          12
          12          12          12          12          12          12
Primitive exponents                        R   N=         126
  4.56324000E+03  6.82024000E+02  1.54973000E+02  4.44553000E+01  1.30290000E+01
  1.82773000E+00  2.09642000E+01  4.80331000E+00  1.45933000E+00  4.83456000E-01
  1.45585000E-01  4.38000000E-02  6.26000000E-01  4.56324000E+03  6.82024000E+02
  1.54973000E+02  4.44553000E+01  1.30290000E+01  1.82773000E+00  2.09642000E+01
  4.80331000E+00  1.45933000E+00  4.83456000E-01  1.45585000E-01  4.38000000E-02
  6.26000000E-01  4.56324000E+03  6.82024000E+02  1.54973000E+02  4.44553000E+01
  1.30290000E+01  1.82773000E+00  2.09642000E+01  4.80331000E+00  1.45933000E+00
  4.83456000E-01  1.45585000E-01  4.38000000E-02  6.26000000E-01  4.56324000E+03
  6.82024000E+02  1.54973000E+02  4.44553000E+01  1.30290000E+01  1.82773000E+00
  2.09642000E+01  4.80331000E+00  1.45933000E+00  4.83456000E-01  1.45585000E-01
  4.38000000E-02  6.26000000E-01  3.38650000E+01  5.09479000E+00  1.15879000E+00
  3.25840000E-01  1.02741000E-01  3.60000000E-02  7.50000000E-01  3.38650000E+01
  5.09479000E+00  1.15879000E+00  3.25840000E-01  1.02741000E-01  3.60000000E-02
  7.50000000E-01  3.38650000E+01  5.09479000E+00  1.15879000E+00  3.25840000E-01
  1.02741000E-01  3.60000000E-02  7.50000000E-01  3.38650000E+01  5.09479000E+00
  1.15879000E+00  3.25840000E-01  1.02741000E-01  3.60000000E-02  7.50000000E-01
  3.38650000E+01  5.09479000E+00  1.15879000E+00  3.25840000E-01  1.02741000E-01
  3.60000000E-02  7.50000000E-01  3.38650000E+01  5.09479000E+00  1.15879000E+00
  3.25840000E-01  1.02741000E-01  3.60000000E-02  7.50000000E-01  3.38650000E+01
  5.09479000E+00  1.15879000E+00  3.25840000E-01  1.02741000E-01  3.60000000E-02
  7.50000000E-01  1.05819000E+05  1.58720000E+04  3.61965000E+03  1.03080000E+03
  3.39908000E+02  1.24538000E+02  1.24538000E+02  4.95135000E+01  2.08056000E+01
  6.58346000E+00  2.56468000E+00  5.59763000E-01  1.83273000E-01  4.83000000E-02
  5.89776000E+02  1.39849000E+02  4.51413000E+01  1.68733000E+01  2.77152000E+00
  6.74110000E+00  2.77152000E+00  1.02387000E+00  3.81368000E-01  1.09437000E-01
  7.50000000E-01
Contraction coefficients                   R   N=         126
  1.96665025E-03  1.52306019E-02  7.61269097E-02  2.60801033E-01  6.16462078E-01
  2.21006028E-01  1.14660081E-01  9.19999648E-01 -3.03068213E-03  1.00000000E+00
  1.00000000E+00  1.00000000E+00  1.00000000E+00  1.96665025E-03  1.52306019E-02
  7.61269097E-02  2.60801033E-01  6.16462078E-01  2.21006028E-01  1.14660081E-01
  9.19999648E-01 -3.03068213E-03  1.00000000E+00  1.00000000E+00  1.00000000E+00
  1.00000000E+00  1.96665025E-03  1.52306019E-02  7.61269097E-02  2.60801033E-01
  6.16462078E-01  2.21006028E-01  1.14660081E-01  9.19999648E-01 -3.03068213E-03
  1.00000000E+00  1.00000000E+00  1.00000000E+00  1.00000000E+00  1.96665025E-03
  1.52306019E-02  7.61269097E-02  2.60801033E-01  6.16462078E-01  2.21006028E-01
  1.14660081E-01  9.19999648E-01 -3.03068213E-03  1.00000000E+00  1.00000000E+00
  1.00000000E+00  1.00000000E+00  2.54938145E-02  1.90373109E-01  8.52161486E-01
  1.00000000E+00  1.00000000E+00  1.00000000E+00  1.00000000E+00  2.54938145E-02
  1.90373109E-01  8.52161486E-01  1.00000000E+00  1.00000000E+00  1.00000000E+00
  1.00000000E+00  2.54938145E-02  1.90373109E-01  8.52161486E-01  1.00000000E+00
  1.00000000E+00  1.00000000E+00  1.00000000E+00  2.54938145E-02  1.90373109E-01
  8.52161486E-01  1.00000000E+00  1.00000000E+00  1.00000000E+00  1.00000000E+00
  2.54938145E-02  1.90373109E-01  8.52161486E-01  1.00000000E+00  1.00000000E+00
  1.00000000E+00  1.00000000E+00  2.54938145E-02  1.90373109E-01  8.52161486E-01
  1.00000000E+00  1.00000000E+00  1.00000000E+00  1.00000000E+00  2.54938145E-02
  1.90373109E-01  8.52161486E-01  1.00000000E+00  1.00000000E+00  1.00000000E+00
  1.00000000E+00  7.38000247E-04  5.71800191E-03  2.94950099E-02  1.17286039E-01
  3.62949121E-01  5.84149195E-01  1.34176973E-01  6.24249876E-01  2.91755942E-01
  1.00000000E+00  1.00000000E+00  1.00000000E+00  1.00000000E+00  1.00000000E+00
  3.66556935E-03  2.83679194E-02  1.24756603E-01  3.39654631E-01  7.47585963E-01
 -1.57224381E+00  9.92388882E-01  1.00000000E+00  1.00000000E+00  1.00000000E+00
  1.00000000E+00
P(S=P) Contraction coefficients            R   N=         126
  0.00000000E+00  0.00000000E+00  0.00000000E+00  0.00000000E+00  0.00000000E+00
  0.00000000E+00  4.02486927E-02  2.37593957E-01  8.15853851E-01  1.00000000E+00
  1.00000000E+00  1.00000000E+00  0.00000000E+00  0.00000000E+00  0.00000000E+00
  0.00000000E+00  0.00000000E+00  0.00000000E+00  0.00000000E+00  4.02486927E-02
  2.37593957E-01  8.15853851E-01  1.00000000E+00  1.00000000E+00  1.00000000E+00
  0.00000000E+00  0.00000000E+00  0.00000000E+00  0.00000000E+00  0.00000000E+00
  0.00000000E+00  0.00000000E+00  4.02486927E-02  2.37593957E-01  8.15853851E-01
  1.00000000E+00  1.00000000E+00  1.00000000E+00  0.00000000E+00  0.00000000E+00
  0.00000000E+00  0.00000000E+00  0.00000000E+00  0.00000000E+00  0.00000000E+00
  4.02486927E-02  2.37593957E-01  8.15853851E-01  1.00000000E+00  1.00000000E+00
  1.00000000E+00  0.00000000E+00  0.00000000E+00  0.00000000E+00  0.00000000E+00
  0.00000000E+00  0.00000000E+00  0.00000000E+00  0.00000000E+00  0.00000000E+00
  0.00000000E+00  0.00000000E+00  0.00000000E+00  0.00000000E+00  0.00000000E+00
  0.00000000E+00  0.00000000E+00  0.00000000E+00  0.00000000E+00  0.00000000E+00
  0.00000000E+00  0.00000000E+00  0.00000000E+00  0.00000000E+00  0.00000000E+00
  0.00000000E+00  0.00000000E+00  0.00000000E+00  0.00000000E+00  0.00000000E+00
  0.00000000E+00  0.00000000E+00  0.00000000E+00  0.00000000E+00  0.00000000E+00
  0.00000000E+00  0.00000000E+00  0.00000000E+00  0.00000000E+00  0.00000000E+00
  0.00000000E+00  0.00000000E+00  0.00000000E+00  0.00000000E+00  0.00000000E+00
  0.00000000E+00  0.00000000E+00  0.00000000E+00  0.00000000E+00  0.00000000E+00
  0.00000000E+00  0.00000000E+00  0.00000000E+00  0.00000000E+00  0.00000000E+00
  0.00000000E+00  0.00000000E+00  0.00000000E+00  0.00000000E+00  0.00000000E+00
  0.00000000E+00  0.00000000E+00  0.00000000E+00  0.00000000E+00  1.00000000E+00
  0.00000000E+00  0.00000000E+00  0.00000000E+00  0.00000000E+00  0.00000000E+00
  0.00000000E+00  0.00000000E+00  0.00000000E+00  0.00000000E+00  0.00000000E+00
  0.00000000E+00
Coordinates of each shell                  R   N=         216
  8.86109949E-01  3.34744851E+00  8.82619661E-02  8.86109949E-01  3.34744851E+00
  8.82619661E-02  8.86109949E-01  3.34744851E+00  8.82619661E-02  8.86109949E-01
  3.34744851E+00  8.82619661E-02  8.86109949E-01  3.34744851E+00  8.82619661E-02
  8.86109949E-01  3.34744851E+00  8.82619661E-02  8.03047835E-03  6.62218245E-01
 -6.11413778E-01  8.03047835E-03  6.62218245E-01 -6.11413778E-01  8.03047835E-03
  6.62218245E-01 -6.11413778E-01  8.03047835E-03  6.62218245E-01 -6.11413778E-01
  8.03047835E-03  6.62218245E-01 -6.11413778E-01  8.03047835E-03  6.62218245E-01
 -6.11413778E-01 -2.27735634E+00 -1.86636107E-01  8.08431411E-01 -2.27735634E+00
 -1.86636107E-01  8.08431411E-01 -2.27735634E+00 -1.86636107E-01  8.08431411E-01
 -2.27735634E+00 -1.86636107E-01  8.08431411E-01 -2.27735634E+00 -1.86636107E-01
  8.08431411E-01 -2.27735634E+00 -1.86636107E-01  8.08431411E-01 -4.40453585E+00
 -9.48221633E-01 -2.97280582E-01 -4.40453585E+00 -9.48221633E-01 -2.97280582E-01
 -4.40453585E+00 -9.48221633E-01 -2.97280582E-01 -4.40453585E+00 -9.48221633E-01
 -2.97280582E-01 -4.40453585E+00 -9.48221633E-01 -2.97280582E-01 -4.40453585E+00
 -9.48221633E-01 -2.97280582E-01 -4.59037806E+00 -1.04590535E+00 -2.33810627E+00
 -4.59037806E+00 -1.04590535E+00 -2.33810627E+00 -4.59037806E+00 -1.04590535E+00
 -2.33810627E+00 -4.59037806E+00 -1.04590535E+00 -2.33810627E+00 -4.59037806E+00
 -1.04590535E+00 -2.33810627E+00  2.60184236E+00  3.72739599E+00 -9.94738090E-01
  2.60184236E+00  3.72739599E+00 -9.94738090E-01  2.60184236E+00  3.72739599E+00
 -9.94738090E-01  2.60184236E+00  3.72739599E+00 -9.94738090E-01  2.60184236E+00
  3.72739599E+00 -9.94738090E-01 -6.03860377E+00 -1.50554584E+00  8.04619213E-01
 -6.03860377E+00 -1.50554584E+00  8.04619213E-01 -6.03860377E+00 -1.50554584E+00
  8.04619213E-01 -6.03860377E+00 -1.50554584E+00  8.04619213E-01 -6.03860377E+00
 -1.50554584E+00  8.04619213E-01 -2.12809409E+00 -1.20613891E-01  2.85732921E+00
 -2.12809409E+00 -1.20613891E-01  2.85732921E+00 -2.12809409E+00 -1.20613891E-01
  2.85732921E+00 -2.12809409E+00 -1.20613891E-01  2.85732921E+00 -2.12809409E+00
 -1.20613891E-01  2.85732921E+00 -2.84875962E-01  5.05412428E-01 -2.64373869E+00
 -2.84875962E-01  5.05412428E-01 -2.64373869E+00 -2.84875962E-01  5.05412428E-01
 -2.64373869E+00 -2.84875962E-01  5.05412428E-01 -2.64373869E+00 -2.84875962E-01
  5.05412428E-01 -2.64373869E+00  1.25316476E+00  3.35087179E+00  2.12198956E+00
  1.25316476E+00  3.35087179E+00  2.12198956E+00  1.25316476E+00  3.35087179E+00
  2.12198956E+00  1.25316476E+00  3.35087179E+00  2.12198956E+00  1.25316476E+00
  3.35087179E+00  2.12198956E+00 -6.92784710E-01  4.58106692E+00 -4.33706602E-01
 -6.92784710E-01  4.58106692E+00 -4.33706602E-01 -6.92784710E-01  4.58106692E+00
 -4.33706602E-01 -6.92784710E-01  4.58106692E+00 -4.33706602E-01 -6.92784710E-01
  4.58106692E+00 -4.33706602E-01  2.62389648E+00 -1.57303154E+00  4.10798564E-02
  2.62389648E+00 -1.57303154E+00  4.10798564E-02  2.62389648E+00 -1.57303154E+00
  4.10798564E-02  2.62389648E+00 -1.57303154E+00  4.10798564E-02  2.62389648E+00
 -1.57303154E+00  4.10798564E-02  2.62389648E+00 -1.57303154E+00  4.10798564E-02
  2.62389648E+00 -1.57303154E+00  4.10798564E-02  2.62389648E+00 -1.57303154E+00
  4.10798564E-02  2.62389648E+00 -1.57303154E+00  4.10798564E-02  2.62389648E+00
 -1.57303154E+00  4.10798564E-02  2.62389648E+00 -1.57303154E+00  4.10798564E-02
  2.62389648E+00 -1.57303154E+00  4.10798564E-02  2.62389648E+00 -1.57303154E+00
  4.10798564E-02
Constraint Structure                       R   N=          36
  8.86109949E-01  3.34744851E+00  8.82619661E-02  8.03047835E-03  6.62218245E-01
 -6.11413778E-01 -2.27735634E+00 -1.86636107E-01  8.08431411E-01 -4.40453585E+00
 -9.48221633E-01 -2.97280582E-01 -4.59037806E+00 -1.04590535E+00 -2.33810627E+00
  2.60184236E+00  3.72739599E+00 -9.94738090E-01 -6.03860377E+00 -1.50554584E+00
  8.04619213E-01 -2.12809409E+00 -1.20613891E-01  2.85732921E+00 -2.84875962E-01
  5.05412428E-01 -2.64373869E+00  1.25316476E+00  3.35087179E+00  2.12198956E+00
 -6.92784710E-01  4.58106692E+00 -4.33706602E-01  2.62389648E+00 -1.57303154E+00
  4.10798564E-02
Num ILSW                                   I              100
ILSW                                       I   N=         100
           0           0           0           0           2           0
           0           0           0           0         402          -1
           5           0           0           0           0           0
           0           0           0           0           0           0
           1           0           0           0           0           0
           0           0      100000           0          -1           0
           0           0           0           0           0           0
           0           0           0           1           0           0
           0           0           1           0           0           0
           0           0           4          41           0           0
           0           0           5           0           0           0
           0           0           0           0           0           0
           0           0           0           0           0           0
           0           0           0           0           0           0
           0           0           0           0           0           0
           0           0           0           0           0           0
           0           0           0           0
Num RLSW                                   I               41
RLSW                                       R   N=          41
  8.00000000E-01  7.20000000E-01  1.00000000E+00  8.10000000E-01  2.00000000E-01
  0.00000000E+00  0.00000000E+00  1.00000000E+00  0.00000000E+00  0.00000000E+00
  0.00000000E+00  0.00000000E+00  1.00000000E+00  0.00000000E+00  0.00000000E+00
  0.00000000E+00  0.00000000E+00  1.00000000E+00  0.00000000E+00  0.00000000E+00
  0.00000000E+00  0.00000000E+00  1.00000000E+00  0.00000000E+00  0.00000000E+00
  0.00000000E+00  0.00000000E+00  1.00000000E+00  0.00000000E+00  0.00000000E+00
  0.00000000E+00  0.00000000E+00  0.00000000E+00  0.00000000E+00  0.00000000E+00
  0.00000000E+00  0.00000000E+00  0.00000000E+00  1.00000000E+00  1.00000000E+00
  0.00000000E+00
MxBond                                     I                4
NBond                                      I   N=          12
           4           4           3           3           1           1
           1           1           1           1           1           1
IBond                                      I   N=          48
           2           6          10          11           1           3
           9          12           2           4           8           0
           3           5           7           0           4           0
           0           0           1           0           0           0
           4           0           0           0           3           0
           0           0           2           0           0           0
           1           0           0           0           1           0
           0           0           2           0           0           0
RBond                                      R   N=          48
  1.00000000E+00  1.00000000E+00  1.00000000E+00  1.00000000E+00  1.00000000E+00
  1.00000000E+00  1.00000000E+00  1.00000000E+00  1.00000000E+00  2.00000000E+00
  1.00000000E+00  0.00000000E+00  2.00000000E+00  1.00000000E+00  1.00000000E+00
  0.00000000E+00  1.00000000E+00  0.00000000E+00  0.00000000E+00  0.00000000E+00
  1.00000000E+00  0.00000000E+00  0.00000000E+00  0.00000000E+00  1.00000000E+00
  0.00000000E+00  0.00000000E+00  0.00000000E+00  1.00000000E+00  0.00000000E+00
  0.00000000E+00  0.00000000E+00  1.00000000E+00  0.00000000E+00  0.00000000E+00
  0.00000000E+00  1.00000000E+00  0.00000000E+00  0.00000000E+00  0.00000000E+00
  1.00000000E+00  0.00000000E+00  0.00000000E+00  0.00000000E+00  1.00000000E+00
  0.00000000E+00  0.00000000E+00  0.00000000E+00
Virial Ratio                               R      2.003085511745453E+00
SCF Energy                                 R     -6.168938118808729E+02
Total Energy                               R     -6.168938118808729E+02
RMS Density                                R      9.929930590714168E-12
Nuclear derivative order                   I                0
External E-field                           R   N=          35
  0.00000000E+00  0.00000000E+00  0.00000000E+00  0.00000000E+00  0.00000000E+00
  0.00000000E+00  0.00000000E+00  0.00000000E+00  0.00000000E+00  0.00000000E+00
  0.00000000E+00  0.00000000E+00  0.00000000E+00  0.00000000E+00  0.00000000E+00
  0.00000000E+00  0.00000000E+00  0.00000000E+00  0.00000000E+00  0.00000000E+00
  0.00000000E+00  0.00000000E+00  0.00000000E+00  0.00000000E+00  0.00000000E+00
  0.00000000E+00  0.00000000E+00  0.00000000E+00  0.00000000E+00  0.00000000E+00
  0.00000000E+00  0.00000000E+00  0.00000000E+00  0.00000000E+00  0.00000000E+00
IOpCl                                      I                0
IROHF                                      I                0
Alpha Orbital Energies                     R   N=         167
 -1.01533997E+02 -1.02463931E+01 -1.01941138E+01 -1.01842255E+01 -1.01835276E+01
 -9.44843349E+00 -7.21273100E+00 -7.20337317E+00 -7.20320904E+00 -8.67011714E-01
 -7.87048056E-01 -7.41686419E-01 -6.37995554E-01 -5.77466702E-01 -4.84216789E-01
 -4.77310019E-01 -4.48402453E-01 -4.10029743E-01 -4.04353541E-01 -3.77528123E-01
 -3.68128023E-01 -3.05906345E-01 -2.97645832E-01 -2.80484321E-01 -3.26038948E-02
 -7.67749522E-03  6.97040829E-03  7.03463960E-03  2.21072006E-02  2.84810747E-02
  3.86639576E-02  4.12321147E-02  6.33192886E-02  6.44918880E-02  7.21621296E-02
  8.26050804E-02  8.69033794E-02  9.80038552E-02  1.11226389E-01  1.15295018E-01
  1.18558190E-01  1.22020476E-01  1.28776201E-01  1.30943103E-01  1.35352971E-01
  1.43079244E-01  1.49876584E-01  1.56179626E-01  1.60495714E-01  1.65189264E-01
  1.72125309E-01  1.87719862E-01  1.90591689E-01  2.11567131E-01  2.16702497E-01
  2.25552900E-01  2.46309388E-01  2.60160442E-01  2.68127210E-01  2.91189889E-01
  3.40466494E-01  3.55741320E-01  3.89864452E-01  4.24844014E-01  4.31092894E-01
  4.42843480E-01  4.57650316E-01  4.78391952E-01  4.87829848E-01  4.96625760E-01
  5.23760078E-01  5.28344244E-01  5.66580030E-01  5.88332077E-01  5.92632869E-01
  6.23717362E-01  6.32893108E-01  6.41666693E-01  6.56119994E-01  6.62285468E-01
  6.88512681E-01  7.05888962E-01  7.27530161E-01  7.37524872E-01  7.86866957E-01
  8.15225177E-01  8.30854805E-01  8.60758394E-01  8.91244863E-01  9.01245449E-01
  9.44545477E-01  9.60216936E-01  1.00166257E+00  1.02970987E+00  1.06331637E+00
  1.08605976E+00  1.12529997E+00  1.17471427E+00  1.19862238E+00  1.30431876E+00
  1.41377175E+00  1.42769088E+00  1.43324266E+00  1.46679265E+00  1.50538374E+00
  1.53533330E+00  1.54523522E+00  1.56903610E+00  1.58681055E+00  1.62963494E+00
  1.66989169E+00  1.68978898E+00  1.70449183E+00  1.73187793E+00  1.77805483E+00
  1.78726419E+00  1.87447031E+00  1.88275461E+00  1.93783538E+00  1.98467385E+00
  2.01458909E+00  2.03276033E+00  2.10911530E+00  2.17392281E+00  2.19216511E+00
  2.19353561E+00  2.24373277E+00  2.28424609E+00  2.30613514E+00  2.35936827E+00
  2.38430908E+00  2.45654258E+00  2.47146410E+00  2.50442196E+00  2.51125872E+00
  2.55479701E+00  2.56562886E+00  2.58443320E+00  2.60845361E+00  2.65222859E+00
  2.73150010E+00  2.73985221E+00  2.74973390E+00  2.77488126E+00  2.84883843E+00
  2.87093570E+00  2.93758610E+00  3.06252213E+00  3.09056215E+00  3.18078272E+00
  3.38805663E+00  3.50308377E+00  3.71560083E+00  3.80890180E+00  3.81500628E+00
  3.94733226E+00  4.08494111E+00  4.28207656E+00  9.75776269E+00  2.37164963E+01
  2.37884946E+01  2.39298525E+01  2.42525040E+01  2.59342954E+01  2.59740213E+01
  2.64490818E+01  2.15748109E+02
Alpha MO coefficients                      R   N=       27889
  6.22301166E-08 -4.25630239E-08 -2.68415705E-06 -1.22928220E-06 -1.17283173E-06
 -1.96594490E-06  2.01737242E-05  1.00060332E-05  8.85213975E-06  2.13295228E-05
  3.67834395E-05  2.54834286E-05  2.48166455E-05 -1.57572689E-03 -1.55086477E-04
  4.82273066E-04  4.47551513E-05  8.42874992E-06 -4.89508641E-06 -4.97787250E-06
  1.10871530E-05  5.81896999E-08  1.35587421E-06 -2.72339848E-06  1.28147572E-05
 -1.14360476E-05  5.53735881E-06 -1.67229205E-05 -1.68025618E-05  1.67663718E-05
 -2.05551587E-05  1.67084108E-04  1.33322706E-04 -1.22799172E-04 -6.62840100E-06
  3.86224967E-03 -5.31702193E-04  4.36902914E-04  8.57867796E-04  1.02226642E-05
 -2.09633077E-06  2.31517328E-06 -2.16814625E-06  6.65654292E-06 -6.02283387E-07
  1.75469465E-06  4.14064907E-06 -2.62581128E-06 -4.15341896E-06 -7.87003849E-06
 -2.41964552E-05  1.00636155E-05  2.53912124E-05  2.09803400E-05  9.74754505E-06
 -1.21735915E-05 -6.09482971E-05 -1.26477311E-03 -1.24328886E-03 -4.07674496E-04
 -8.96134553E-05  6.93707882E-06  6.18283136E-06 -5.89695771E-06  5.33445669E-07
 -4.45223169E-06  3.11992754E-07 -9.25809032E-07 -1.88569320E-06  5.87813876E-07
  7.23017820E-07  9.55298908E-06  8.94465781E-06 -2.14500372E-06  1.43224003E-06
 -5.80905266E-05 -8.73285103E-05 -2.11727795E-05  6.03550150E-05 -1.67323954E-03
 -3.50273732E-04 -1.81418141E-04 -1.17431559E-04 -4.84277028E-06 -1.70787762E-06
 -3.51853186E-06 -1.80028524E-06 -1.58246768E-06 -3.22098900E-06  3.48216600E-05
  5.77799095E-05  5.21972069E-05  6.78910254E-06 -1.37232870E-07  6.25591757E-06
  1.22073391E-05 -8.46214950E-05  7.21345739E-05  2.35495906E-04  8.24188833E-06
  1.29010391E-05 -1.07997520E-05  2.04276662E-06 -1.96083752E-05 -5.73769915E-05
 -1.43932033E-04 -8.33097123E-07 -2.24595372E-07  1.19410511E-06  5.80042200E-06
 -3.56171411E-05  5.98910211E-05  1.48159160E-04 -1.10904165E-05  1.76166547E-06
  1.37367852E-05 -1.58381337E-06 -6.03893508E-05 -1.28520610E-04  1.19932611E-04
 -7.16245969E-06  1.93742708E-06 -1.63720180E-05  9.87284385E-06 -6.39545848E-05
 -4.02055748E-05  6.26601495E-05 -4.12851345E-06  1.25264173E-05  1.56420957E-05
 -8.04401348E-06  4.49613554E-05 -1.51371261E-04 -3.10044599E-04  1.89925297E-06
 -5.85593679E-06 -5.25021859E-07  4.11609666E-01  6.54076110E-01  1.50043053E-02